
 Working directory              : /scratch/emmanous/3821785.pbs01/molpro.5x1yBkM3R8/
 Global scratch directory       : /scratch/emmanous/3821785.pbs01/molpro.5x1yBkM3R8/
 Wavefunction directory         : /home/emmanous/wfu/
 Main file repository           : /scratch/emmanous/3821785.pbs01/molpro.5x1yBkM3R8/

 id        : wis

 Nodes     nprocs
 cff054      16
 GA implementation: MPI file
 GA implementation (serial work in mppx): MPI file

 Using DEFAULT tuning parameter for ncache   :   16384
 Using DEFAULT tuning parameter for mflopdgm :   10000
 Using DEFAULT tuning parameter for mflopdgv :    4000
 Using DEFAULT tuning parameter for mflopmxm :    5000
 Using DEFAULT tuning parameter for mflopmxv :    4000
 Using DEFAULT tuning parameter for mindgm   :       1
 Using DEFAULT tuning parameter for mindgc   :       4
 Using DEFAULT tuning parameter for mindgf   :    5000
 Using DEFAULT tuning parameter for mindgl   :       4
 Using DEFAULT tuning parameter for mindgr   :       1
 Using DEFAULT tuning parameter for mindgv   :      20
 Using DEFAULT tuning parameter for mincuda  :     500
 Using DEFAULT tuning parameter for mxmblk   :      64
 Using DEFAULT tuning parameter for mxmbln   :      64
 Using DEFAULT tuning parameter for nroll    :       2
 Using custom tuning parameter for ngpus     :       0
 Using customized tuning parameters: mindgm=1; mindgv=20; mindgc=4; mindgr=1; noblas=0; minvec=7

 Fortran compiler: integer size=8, double size=8, logical size=8
 default implementation of scratch files=sf  


 Variables initialized (1025), CPU time= 0.01 sec
 gprint,basis
 gthresh,energy=1d-9
 ANGSTROM
 geomtyp=xyz
 charge=0
 multiplicity=1
 nosym
 geom={
 Br ,0.0000 ,0.0000 ,1.1405
 Br ,0.0000 ,0.0000 ,-1.1405
 }
 
 basis={
 default,cc-pVQZ-PP-F12
 set,df
 default,cc-pVQZ-PP-F12/MP2Fit
 set,jk
 default,cc-pVQZ-PP-F12/JKFIT
 set,ri
 default,def2-QZVPP/JKFit
 }
 {df-hf,df_basis=jk
 wf,,,$multiplicity-1
 print,orbitals
 maxit,300}
 {df-cabs,gem_beta=1.0,df_basis=df,df_basis_exch=jk,ri_basis=ri,thrcabs=1d-9,thrcabs_rel=1d-9;explicit,ignore_bad_singl=1}
 Commands initialized (840), CPU time= 0.01 sec, 684 directives.
 Default parameters read. Elapsed time= 0.08 sec

 Using DEFAULT tuning parameter for mpplat   :       3
 Using DEFAULT tuning parameter for mppspeed :    1600
 Checking input...
 Passed
1


                                         ***  PROGRAM SYSTEM MOLPRO  ***
                                       Copyright, TTI GmbH Stuttgart, 2015
                                    Version 2022.3 linked Wed Nov 30 13:40:34 2022


 **********************************************************************************************************************************
 LABEL *                                                                                 
  64 bit mpp version                                                                     DATE: 13-Jul-23          TIME: 11:21:33  
 **********************************************************************************************************************************

 SHA1:             e31ec9a5ea85254ab76f59d122cbdd51c71cf98b
 **********************************************************************************************************************************

 Memory per process:      1000 MW
 Total memory per node:  16000 MW

 GA preallocation disabled
 GA check disabled

 Variable memory set to 1000.0 MW



 THRESHOLDS:

 ZERO    =  1.00D-12  ONEINT  =  1.00D-12  TWOINT  =  1.00D-11  PREFAC  =  1.00D-14  XXXXXX  =  1.00D-09  EORDER  =  1.00D-04
 ENERGY  =  1.00D-09  ETEST   =  0.00D+00  EDENS   =  0.00D+00  THRDEDEF=  1.00D-06  GRADIENT=  1.00D-05  STEP    =  1.00D-03
 ORBITAL =  1.00D-05  CIVEC   =  1.00D-05  COEFF   =  1.00D-04  PRINTCI =  5.00D-02  PUNCHCI =  9.90D+01  OPTGRAD =  3.00D-04
 OPTENERG=  1.00D-06  OPTSTEP =  3.00D-04  THRGRAD =  1.00D-10  COMPRESS=  1.00D-11  VARMIN  =  1.00D-07  VARMAX  =  1.00D-03
 THRDOUB =  0.00D+00  THRDIV  =  1.00D-05  THRRED  =  1.00D-07  THRPSP  =  1.00D+00  THRDC   =  1.00D-10  THRCS   =  1.00D-10
 THRNRM  =  1.00D-08  THREQ   =  0.00D+00  THRDE   =  1.00D+00  THRREF  =  1.00D-05  SPARFAC =  1.00D+00  THRDLP  =  1.00D-07
 THRDIA  =  1.00D-10  THRDLS  =  1.00D-07  THRGPS  =  0.00D+00  THRKEX  =  0.00D+00  THRDIS  =  2.00D-01  THRVAR  =  1.00D-10
 THRLOC  =  1.00D-06  THRGAP  =  1.00D-06  THRLOCT = -1.00D+00  THRGAPT = -1.00D+00  THRORB  =  1.00D-06  THRMLTP =  0.00D+00
 THRCPQCI=  1.00D-10  KEXTA   =  0.00D+00  THRCOARS=  0.00D+00  SYMTOL  =  1.00D-06  GRADTOL =  1.00D-06  THROVL  =  1.00D-08
 THRORTH =  1.00D-08  THRDLOVL= -1.00D+00  GRID    =  1.00D-06  GRIDMAX =  1.00D-03  DTMAX   =  0.00D+00  THROCCDE=  1.00D-01
 THROCCDE=  1.00D-01  THRPRINT=  2.50D-01

 SETTING GEOMTYP        =    XYZ
 SETTING CHARGE         =      0.0000000D+00                                  
 SETTING MULTIPLICITY   =         1.00000000                                  
 ZSYMEL=NOSYM
 ZUNIT=ANG

 SETTING BASIS          =    CC-PVQZ-PP-F12


 Recomputing integrals since basis changed


 Using spherical harmonics

 Library entry Br   ECP ECP10MDF                 selected for group  1
 Library entry BR     S cc-pVQZ-PP-F12       selected for orbital group  1
 Library entry BR     P cc-pVQZ-PP-F12       selected for orbital group  1
 Library entry BR     D cc-pVQZ-PP-F12       selected for orbital group  1
 Library entry BR     F cc-pVQZ-PP-F12       selected for orbital group  1
 Library entry BR     G cc-pVQZ-PP-F12       selected for orbital group  1


 PROGRAM * SEWARD (Integral evaluation for generally contracted gaussian basis sets)     Author: Roland Lindh, 1990

 Geometry written to block  1 of record 700


 Point group  C1  



 ATOMIC COORDINATES

 NR  ATOM    CHARGE       X              Y              Z

   1  BR     25.00    0.000000000    0.000000000    2.155232645
   2  BR     25.00    0.000000000    0.000000000   -2.155232645

 Bond lengths in Bohr (Angstrom)

 1-2  4.310465290
     ( 2.281000000)


          BR  CORE POTENTIAL

          g POTENTIAL

 POWERS             2
 EXPONENTIALS   1.000000    
 COEFFICIENTS   0.000000    

          s - g POTENTIAL

 POWERS             2              2              2
 EXPONENTIALS   70.02426       31.17841       7.156593    
 COEFFICIENTS   49.96283       370.0142       10.24144    

          p - g POTENTIAL

 POWERS             2              2              2              2
 EXPONENTIALS   46.77347       46.18412       21.71386       20.94179    
 COEFFICIENTS   99.11224       198.2530       28.26174       56.62337    

          d - g POTENTIAL

 POWERS             2              2              2              2              2              2
 EXPONENTIALS   50.69884       50.64476       15.44751       15.50026       2.800391       1.077480    
 COEFFICIENTS  -18.60585      -27.92328     -0.3796930     -0.7805830      3.5968000E-02  9.4397000E-02

          f - g POTENTIAL

 POWERS             2              2
 EXPONENTIALS   14.46561       21.23407    
 COEFFICIENTS  -1.091269      -2.887691    


          BR  SPIN-ORBIT POTENTIAL

          p POTENTIAL

 POWERS             2              2              2              2
 EXPONENTIALS   46.77347       46.18412       21.71386       20.94179    
 COEFFICIENTS  -198.2245       198.2530      -56.52348       56.62337    

          d POTENTIAL

 POWERS             2              2              2              2              2              2
 EXPONENTIALS   50.69884       50.64476       15.44751       15.50026       2.800391       1.077480    
 COEFFICIENTS   18.60585      -18.61552      0.3796930     -0.5203890     -3.5968000E-02  6.2931000E-02

          f POTENTIAL

 POWERS             2              2
 EXPONENTIALS   14.46561       21.23407    
 COEFFICIENTS  0.7275130      -1.443846    


          BR  CORE POTENTIAL

          g POTENTIAL

 POWERS             2
 EXPONENTIALS   1.000000    
 COEFFICIENTS   0.000000    

          s - g POTENTIAL

 POWERS             2              2              2
 EXPONENTIALS   70.02426       31.17841       7.156593    
 COEFFICIENTS   49.96283       370.0142       10.24144    

          p - g POTENTIAL

 POWERS             2              2              2              2
 EXPONENTIALS   46.77347       46.18412       21.71386       20.94179    
 COEFFICIENTS   99.11224       198.2530       28.26174       56.62337    

          d - g POTENTIAL

 POWERS             2              2              2              2              2              2
 EXPONENTIALS   50.69884       50.64476       15.44751       15.50026       2.800391       1.077480    
 COEFFICIENTS  -18.60585      -27.92328     -0.3796930     -0.7805830      3.5968000E-02  9.4397000E-02

          f - g POTENTIAL

 POWERS             2              2
 EXPONENTIALS   14.46561       21.23407    
 COEFFICIENTS  -1.091269      -2.887691    


          BR  SPIN-ORBIT POTENTIAL

          p POTENTIAL

 POWERS             2              2              2              2
 EXPONENTIALS   46.77347       46.18412       21.71386       20.94179    
 COEFFICIENTS  -198.2245       198.2530      -56.52348       56.62337    

          d POTENTIAL

 POWERS             2              2              2              2              2              2
 EXPONENTIALS   50.69884       50.64476       15.44751       15.50026       2.800391       1.077480    
 COEFFICIENTS   18.60585      -18.61552      0.3796930     -0.5203890     -3.5968000E-02  6.2931000E-02

          f POTENTIAL

 POWERS             2              2
 EXPONENTIALS   14.46561       21.23407    
 COEFFICIENTS  0.7275130      -1.443846    


 BASIS DATA

   Nr Sym  Nuc  Type         Exponents   Contraction coefficients

    1.1 A     1  1s      200938.000000     0.000009   -0.000003    0.000000    0.000000    0.000000    0.000000
                                           0.000000
    2.1 A                 29988.800000     0.000067   -0.000028    0.000000    0.000000    0.000000    0.000000
                                           0.000000
    3.1 A                  6825.560000     0.000347   -0.000138    0.000000    0.000000    0.000000    0.000000
                                           0.000000
    4.1 A                  1940.520000     0.001338   -0.000556    0.000000    0.000000    0.000000    0.000000
                                           0.000000
    5.1 A                   635.802000     0.003912   -0.001532    0.000000    0.000000    0.000000    0.000000
                                           0.000000
    6.1 A                   224.404000     0.007526   -0.003243    0.000000    0.000000    0.000000    0.000000
                                           0.000000
    7.1 A                    37.633300     0.164406   -0.061791    0.000000    0.000000    0.000000    0.000000
                                           0.000000
                             23.521800    -0.335515    0.133523    0.000000    0.000000    0.000000    0.000000
                                           0.000000
                             11.859500    -0.254766    0.083696    0.000000    0.000000    0.000000    0.000000
                                           0.000000
                              7.406110     0.175806   -0.057370    0.000000    0.000000    0.000000    0.000000
                                           0.000000
                              3.581420     0.629417   -0.337801    0.000000    0.000000    0.000000    0.000000
                                           0.000000
                              1.833560     0.450423   -0.378549    1.000000    0.000000    0.000000    0.000000
                                           0.000000
                              0.803016     0.057087    0.037830    0.000000    1.000000    0.000000    0.000000
                                           0.000000
                              0.462260    -0.006971    0.536477    0.000000    0.000000    1.000000    0.000000
                                           0.000000
                              0.219612     0.002281    0.541365    0.000000    0.000000    0.000000    1.000000
                                           0.000000
                              0.099755    -0.000202    0.131620    0.000000    0.000000    0.000000    0.000000
                                           1.000000
    8.1 A     1  1s           0.039100     1.000000
    9.1 A     1  2px       1328.640000     0.000098
                            312.536000     0.000674
                             74.190000     0.008948
                             37.605800    -0.024985
                             23.502600    -0.076388
                              8.469130     0.214113
                              4.706870     0.403353
                              2.556820     0.363140
                              1.356470     0.138157
                              0.646820     0.014254
                              0.307888     0.000657
                              0.142507     0.000601
                              0.063702     0.000055
   10.1 A     1  2py       1328.640000     0.000098
                            312.536000     0.000674
                             74.190000     0.008948
                             37.605800    -0.024985
                             23.502600    -0.076388
                              8.469130     0.214113
                              4.706870     0.403353
                              2.556820     0.363140
                              1.356470     0.138157
                              0.646820     0.014254
                              0.307888     0.000657
                              0.142507     0.000601
                              0.063702     0.000055
   11.1 A     1  2pz       1328.640000     0.000098
                            312.536000     0.000674
                             74.190000     0.008948
                             37.605800    -0.024985
                             23.502600    -0.076388
                              8.469130     0.214113
                              4.706870     0.403353
                              2.556820     0.363140
                              1.356470     0.138157
                              0.646820     0.014254
                              0.307888     0.000657
                              0.142507     0.000601
                              0.063702     0.000055
   12.1 A     1  2px       1328.640000    -0.000029
                            312.536000    -0.000193
                             74.190000    -0.002680
                             37.605800     0.008394
                             23.502600     0.020287
                              8.469130    -0.071679
                              4.706870    -0.127933
                              2.556820    -0.148178
                              1.356470    -0.001385
                              0.646820     0.285446
                              0.307888     0.444926
                              0.142507     0.337632
                              0.063702     0.088066
   13.1 A     1  2py       1328.640000    -0.000029
                            312.536000    -0.000193
                             74.190000    -0.002680
                             37.605800     0.008394
                             23.502600     0.020287
                              8.469130    -0.071679
                              4.706870    -0.127933
                              2.556820    -0.148178
                              1.356470    -0.001385
                              0.646820     0.285446
                              0.307888     0.444926
                              0.142507     0.337632
                              0.063702     0.088066
   14.1 A     1  2pz       1328.640000    -0.000029
                            312.536000    -0.000193
                             74.190000    -0.002680
                             37.605800     0.008394
                             23.502600     0.020287
                              8.469130    -0.071679
                              4.706870    -0.127933
                              2.556820    -0.148178
                              1.356470    -0.001385
                              0.646820     0.285446
                              0.307888     0.444926
                              0.142507     0.337632
                              0.063702     0.088066
   15.1 A     1  2px       1328.640000     0.000000
                            312.536000     0.000000
                             74.190000     0.000000
                             37.605800     0.000000
                             23.502600     0.000000
                              8.469130     0.000000
                              4.706870     0.000000
                              2.556820     0.000000
                              1.356470     1.000000
                              0.646820     0.000000
                              0.307888     0.000000
                              0.142507     0.000000
                              0.063702     0.000000
   16.1 A     1  2py       1328.640000     0.000000
                            312.536000     0.000000
                             74.190000     0.000000
                             37.605800     0.000000
                             23.502600     0.000000
                              8.469130     0.000000
                              4.706870     0.000000
                              2.556820     0.000000
                              1.356470     1.000000
                              0.646820     0.000000
                              0.307888     0.000000
                              0.142507     0.000000
                              0.063702     0.000000
   17.1 A     1  2pz       1328.640000     0.000000
                            312.536000     0.000000
                             74.190000     0.000000
                             37.605800     0.000000
                             23.502600     0.000000
                              8.469130     0.000000
                              4.706870     0.000000
                              2.556820     0.000000
                              1.356470     1.000000
                              0.646820     0.000000
                              0.307888     0.000000
                              0.142507     0.000000
                              0.063702     0.000000
   18.1 A     1  2px       1328.640000     0.000000
                            312.536000     0.000000
                             74.190000     0.000000
                             37.605800     0.000000
                             23.502600     0.000000
                              8.469130     0.000000
                              4.706870     0.000000
                              2.556820     0.000000
                              1.356470     0.000000
                              0.646820     0.000000
                              0.307888     1.000000
                              0.142507     0.000000
                              0.063702     0.000000
   19.1 A     1  2py       1328.640000     0.000000
                            312.536000     0.000000
                             74.190000     0.000000
                             37.605800     0.000000
                             23.502600     0.000000
                              8.469130     0.000000
                              4.706870     0.000000
                              2.556820     0.000000
                              1.356470     0.000000
                              0.646820     0.000000
                              0.307888     1.000000
                              0.142507     0.000000
                              0.063702     0.000000
   20.1 A     1  2pz       1328.640000     0.000000
                            312.536000     0.000000
                             74.190000     0.000000
                             37.605800     0.000000
                             23.502600     0.000000
                              8.469130     0.000000
                              4.706870     0.000000
                              2.556820     0.000000
                              1.356470     0.000000
                              0.646820     0.000000
                              0.307888     1.000000
                              0.142507     0.000000
                              0.063702     0.000000
   21.1 A     1  2px       1328.640000     0.000000
                            312.536000     0.000000
                             74.190000     0.000000
                             37.605800     0.000000
                             23.502600     0.000000
                              8.469130     0.000000
                              4.706870     0.000000
                              2.556820     0.000000
                              1.356470     0.000000
                              0.646820     0.000000
                              0.307888     0.000000
                              0.142507     1.000000
                              0.063702     0.000000
   22.1 A     1  2py       1328.640000     0.000000
                            312.536000     0.000000
                             74.190000     0.000000
                             37.605800     0.000000
                             23.502600     0.000000
                              8.469130     0.000000
                              4.706870     0.000000
                              2.556820     0.000000
                              1.356470     0.000000
                              0.646820     0.000000
                              0.307888     0.000000
                              0.142507     1.000000
                              0.063702     0.000000
   23.1 A     1  2pz       1328.640000     0.000000
                            312.536000     0.000000
                             74.190000     0.000000
                             37.605800     0.000000
                             23.502600     0.000000
                              8.469130     0.000000
                              4.706870     0.000000
                              2.556820     0.000000
                              1.356470     0.000000
                              0.646820     0.000000
                              0.307888     0.000000
                              0.142507     1.000000
                              0.063702     0.000000
   24.1 A     1  2px       1328.640000     0.000000
                            312.536000     0.000000
                             74.190000     0.000000
                             37.605800     0.000000
                             23.502600     0.000000
                              8.469130     0.000000
                              4.706870     0.000000
                              2.556820     0.000000
                              1.356470     0.000000
                              0.646820     0.000000
                              0.307888     0.000000
                              0.142507     0.000000
                              0.063702     1.000000
   25.1 A     1  2py       1328.640000     0.000000
                            312.536000     0.000000
                             74.190000     0.000000
                             37.605800     0.000000
                             23.502600     0.000000
                              8.469130     0.000000
                              4.706870     0.000000
                              2.556820     0.000000
                              1.356470     0.000000
                              0.646820     0.000000
                              0.307888     0.000000
                              0.142507     0.000000
                              0.063702     1.000000
   26.1 A     1  2pz       1328.640000     0.000000
                            312.536000     0.000000
                             74.190000     0.000000
                             37.605800     0.000000
                             23.502600     0.000000
                              8.469130     0.000000
                              4.706870     0.000000
                              2.556820     0.000000
                              1.356470     0.000000
                              0.646820     0.000000
                              0.307888     0.000000
                              0.142507     0.000000
                              0.063702     1.000000
   27.1 A     1  2px          0.026900     1.000000
   28.1 A     1  2py          0.026900     1.000000
   29.1 A     1  2pz          0.026900     1.000000
   30.1 A     1  3d0       1441.580000     0.000060
                            437.691000     0.000625
                            172.153000     0.004153
                             78.212400     0.021012
                             39.608200     0.062814
                             20.344000     0.135829
                             10.739200     0.229132
                              5.707730     0.293693
                              3.021940     0.286346
                              1.576690     0.190019
                              0.784411     0.068694
                              0.335235     0.008403
   31.1 A     1  3d2-      1441.580000     0.000060
                            437.691000     0.000625
                            172.153000     0.004153
                             78.212400     0.021012
                             39.608200     0.062814
                             20.344000     0.135829
                             10.739200     0.229132
                              5.707730     0.293693
                              3.021940     0.286346
                              1.576690     0.190019
                              0.784411     0.068694
                              0.335235     0.008403
   32.1 A     1  3d1+      1441.580000     0.000060
                            437.691000     0.000625
                            172.153000     0.004153
                             78.212400     0.021012
                             39.608200     0.062814
                             20.344000     0.135829
                             10.739200     0.229132
                              5.707730     0.293693
                              3.021940     0.286346
                              1.576690     0.190019
                              0.784411     0.068694
                              0.335235     0.008403
   33.1 A     1  3d2+      1441.580000     0.000060
                            437.691000     0.000625
                            172.153000     0.004153
                             78.212400     0.021012
                             39.608200     0.062814
                             20.344000     0.135829
                             10.739200     0.229132
                              5.707730     0.293693
                              3.021940     0.286346
                              1.576690     0.190019
                              0.784411     0.068694
                              0.335235     0.008403
   34.1 A     1  3d1-      1441.580000     0.000060
                            437.691000     0.000625
                            172.153000     0.004153
                             78.212400     0.021012
                             39.608200     0.062814
                             20.344000     0.135829
                             10.739200     0.229132
                              5.707730     0.293693
                              3.021940     0.286346
                              1.576690     0.190019
                              0.784411     0.068694
                              0.335235     0.008403
   35.1 A     1  3d0          2.660800     1.000000
   36.1 A     1  3d2-         2.660800     1.000000
   37.1 A     1  3d1+         2.660800     1.000000
   38.1 A     1  3d2+         2.660800     1.000000
   39.1 A     1  3d1-         2.660800     1.000000
   40.1 A     1  3d0          0.743400     1.000000
   41.1 A     1  3d2-         0.743400     1.000000
   42.1 A     1  3d1+         0.743400     1.000000
   43.1 A     1  3d2+         0.743400     1.000000
   44.1 A     1  3d1-         0.743400     1.000000
   45.1 A     1  3d0          0.409500     1.000000
   46.1 A     1  3d2-         0.409500     1.000000
   47.1 A     1  3d1+         0.409500     1.000000
   48.1 A     1  3d2+         0.409500     1.000000
   49.1 A     1  3d1-         0.409500     1.000000
   50.1 A     1  3d0          0.225600     1.000000
   51.1 A     1  3d2-         0.225600     1.000000
   52.1 A     1  3d1+         0.225600     1.000000
   53.1 A     1  3d2+         0.225600     1.000000
   54.1 A     1  3d1-         0.225600     1.000000
   55.1 A     1  3d0          0.124200     1.000000
   56.1 A     1  3d2-         0.124200     1.000000
   57.1 A     1  3d1+         0.124200     1.000000
   58.1 A     1  3d2+         0.124200     1.000000
   59.1 A     1  3d1-         0.124200     1.000000
   60.1 A     1  4f1+         3.511600     1.000000
   61.1 A     1  4f1-         3.511600     1.000000
   62.1 A     1  4f0          3.511600     1.000000
   63.1 A     1  4f3+         3.511600     1.000000
   64.1 A     1  4f2-         3.511600     1.000000
   65.1 A     1  4f3-         3.511600     1.000000
   66.1 A     1  4f2+         3.511600     1.000000
   67.1 A     1  4f1+         0.842500     1.000000
   68.1 A     1  4f1-         0.842500     1.000000
   69.1 A     1  4f0          0.842500     1.000000
   70.1 A     1  4f3+         0.842500     1.000000
   71.1 A     1  4f2-         0.842500     1.000000
   72.1 A     1  4f3-         0.842500     1.000000
   73.1 A     1  4f2+         0.842500     1.000000
   74.1 A     1  4f1+         0.405300     1.000000
   75.1 A     1  4f1-         0.405300     1.000000
   76.1 A     1  4f0          0.405300     1.000000
   77.1 A     1  4f3+         0.405300     1.000000
   78.1 A     1  4f2-         0.405300     1.000000
   79.1 A     1  4f3-         0.405300     1.000000
   80.1 A     1  4f2+         0.405300     1.000000
   81.1 A     1  4f1+         0.195000     1.000000
   82.1 A     1  4f1-         0.195000     1.000000
   83.1 A     1  4f0          0.195000     1.000000
   84.1 A     1  4f3+         0.195000     1.000000
   85.1 A     1  4f2-         0.195000     1.000000
   86.1 A     1  4f3-         0.195000     1.000000
   87.1 A     1  4f2+         0.195000     1.000000
   88.1 A     1  5g0          0.794700     1.000000
   89.1 A     1  5g2-         0.794700     1.000000
   90.1 A     1  5g1+         0.794700     1.000000
   91.1 A     1  5g4+         0.794700     1.000000
   92.1 A     1  5g1-         0.794700     1.000000
   93.1 A     1  5g2+         0.794700     1.000000
   94.1 A     1  5g4-         0.794700     1.000000
   95.1 A     1  5g3+         0.794700     1.000000
   96.1 A     1  5g3-         0.794700     1.000000
   97.1 A     1  5g0          0.315500     1.000000
   98.1 A     1  5g2-         0.315500     1.000000
   99.1 A     1  5g1+         0.315500     1.000000
  100.1 A     1  5g4+         0.315500     1.000000
  101.1 A     1  5g1-         0.315500     1.000000
  102.1 A     1  5g2+         0.315500     1.000000
  103.1 A     1  5g4-         0.315500     1.000000
  104.1 A     1  5g3+         0.315500     1.000000
  105.1 A     1  5g3-         0.315500     1.000000
  106.1 A     2  1s      200938.000000     0.000009   -0.000003    0.000000    0.000000    0.000000    0.000000
                                           0.000000
  107.1 A                 29988.800000     0.000067   -0.000028    0.000000    0.000000    0.000000    0.000000
                                           0.000000
  108.1 A                  6825.560000     0.000347   -0.000138    0.000000    0.000000    0.000000    0.000000
                                           0.000000
  109.1 A                  1940.520000     0.001338   -0.000556    0.000000    0.000000    0.000000    0.000000
                                           0.000000
  110.1 A                   635.802000     0.003912   -0.001532    0.000000    0.000000    0.000000    0.000000
                                           0.000000
  111.1 A                   224.404000     0.007526   -0.003243    0.000000    0.000000    0.000000    0.000000
                                           0.000000
  112.1 A                    37.633300     0.164406   -0.061791    0.000000    0.000000    0.000000    0.000000
                                           0.000000
                             23.521800    -0.335515    0.133523    0.000000    0.000000    0.000000    0.000000
                                           0.000000
                             11.859500    -0.254766    0.083696    0.000000    0.000000    0.000000    0.000000
                                           0.000000
                              7.406110     0.175806   -0.057370    0.000000    0.000000    0.000000    0.000000
                                           0.000000
                              3.581420     0.629417   -0.337801    0.000000    0.000000    0.000000    0.000000
                                           0.000000
                              1.833560     0.450423   -0.378549    1.000000    0.000000    0.000000    0.000000
                                           0.000000
                              0.803016     0.057087    0.037830    0.000000    1.000000    0.000000    0.000000
                                           0.000000
                              0.462260    -0.006971    0.536477    0.000000    0.000000    1.000000    0.000000
                                           0.000000
                              0.219612     0.002281    0.541365    0.000000    0.000000    0.000000    1.000000
                                           0.000000
                              0.099755    -0.000202    0.131620    0.000000    0.000000    0.000000    0.000000
                                           1.000000
  113.1 A     2  1s           0.039100     1.000000
  114.1 A     2  2px       1328.640000     0.000098
                            312.536000     0.000674
                             74.190000     0.008948
                             37.605800    -0.024985
                             23.502600    -0.076388
                              8.469130     0.214113
                              4.706870     0.403353
                              2.556820     0.363140
                              1.356470     0.138157
                              0.646820     0.014254
                              0.307888     0.000657
                              0.142507     0.000601
                              0.063702     0.000055
  115.1 A     2  2py       1328.640000     0.000098
                            312.536000     0.000674
                             74.190000     0.008948
                             37.605800    -0.024985
                             23.502600    -0.076388
                              8.469130     0.214113
                              4.706870     0.403353
                              2.556820     0.363140
                              1.356470     0.138157
                              0.646820     0.014254
                              0.307888     0.000657
                              0.142507     0.000601
                              0.063702     0.000055
  116.1 A     2  2pz       1328.640000     0.000098
                            312.536000     0.000674
                             74.190000     0.008948
                             37.605800    -0.024985
                             23.502600    -0.076388
                              8.469130     0.214113
                              4.706870     0.403353
                              2.556820     0.363140
                              1.356470     0.138157
                              0.646820     0.014254
                              0.307888     0.000657
                              0.142507     0.000601
                              0.063702     0.000055
  117.1 A     2  2px       1328.640000    -0.000029
                            312.536000    -0.000193
                             74.190000    -0.002680
                             37.605800     0.008394
                             23.502600     0.020287
                              8.469130    -0.071679
                              4.706870    -0.127933
                              2.556820    -0.148178
                              1.356470    -0.001385
                              0.646820     0.285446
                              0.307888     0.444926
                              0.142507     0.337632
                              0.063702     0.088066
  118.1 A     2  2py       1328.640000    -0.000029
                            312.536000    -0.000193
                             74.190000    -0.002680
                             37.605800     0.008394
                             23.502600     0.020287
                              8.469130    -0.071679
                              4.706870    -0.127933
                              2.556820    -0.148178
                              1.356470    -0.001385
                              0.646820     0.285446
                              0.307888     0.444926
                              0.142507     0.337632
                              0.063702     0.088066
  119.1 A     2  2pz       1328.640000    -0.000029
                            312.536000    -0.000193
                             74.190000    -0.002680
                             37.605800     0.008394
                             23.502600     0.020287
                              8.469130    -0.071679
                              4.706870    -0.127933
                              2.556820    -0.148178
                              1.356470    -0.001385
                              0.646820     0.285446
                              0.307888     0.444926
                              0.142507     0.337632
                              0.063702     0.088066
  120.1 A     2  2px       1328.640000     0.000000
                            312.536000     0.000000
                             74.190000     0.000000
                             37.605800     0.000000
                             23.502600     0.000000
                              8.469130     0.000000
                              4.706870     0.000000
                              2.556820     0.000000
                              1.356470     1.000000
                              0.646820     0.000000
                              0.307888     0.000000
                              0.142507     0.000000
                              0.063702     0.000000
  121.1 A     2  2py       1328.640000     0.000000
                            312.536000     0.000000
                             74.190000     0.000000
                             37.605800     0.000000
                             23.502600     0.000000
                              8.469130     0.000000
                              4.706870     0.000000
                              2.556820     0.000000
                              1.356470     1.000000
                              0.646820     0.000000
                              0.307888     0.000000
                              0.142507     0.000000
                              0.063702     0.000000
  122.1 A     2  2pz       1328.640000     0.000000
                            312.536000     0.000000
                             74.190000     0.000000
                             37.605800     0.000000
                             23.502600     0.000000
                              8.469130     0.000000
                              4.706870     0.000000
                              2.556820     0.000000
                              1.356470     1.000000
                              0.646820     0.000000
                              0.307888     0.000000
                              0.142507     0.000000
                              0.063702     0.000000
  123.1 A     2  2px       1328.640000     0.000000
                            312.536000     0.000000
                             74.190000     0.000000
                             37.605800     0.000000
                             23.502600     0.000000
                              8.469130     0.000000
                              4.706870     0.000000
                              2.556820     0.000000
                              1.356470     0.000000
                              0.646820     0.000000
                              0.307888     1.000000
                              0.142507     0.000000
                              0.063702     0.000000
  124.1 A     2  2py       1328.640000     0.000000
                            312.536000     0.000000
                             74.190000     0.000000
                             37.605800     0.000000
                             23.502600     0.000000
                              8.469130     0.000000
                              4.706870     0.000000
                              2.556820     0.000000
                              1.356470     0.000000
                              0.646820     0.000000
                              0.307888     1.000000
                              0.142507     0.000000
                              0.063702     0.000000
  125.1 A     2  2pz       1328.640000     0.000000
                            312.536000     0.000000
                             74.190000     0.000000
                             37.605800     0.000000
                             23.502600     0.000000
                              8.469130     0.000000
                              4.706870     0.000000
                              2.556820     0.000000
                              1.356470     0.000000
                              0.646820     0.000000
                              0.307888     1.000000
                              0.142507     0.000000
                              0.063702     0.000000
  126.1 A     2  2px       1328.640000     0.000000
                            312.536000     0.000000
                             74.190000     0.000000
                             37.605800     0.000000
                             23.502600     0.000000
                              8.469130     0.000000
                              4.706870     0.000000
                              2.556820     0.000000
                              1.356470     0.000000
                              0.646820     0.000000
                              0.307888     0.000000
                              0.142507     1.000000
                              0.063702     0.000000
  127.1 A     2  2py       1328.640000     0.000000
                            312.536000     0.000000
                             74.190000     0.000000
                             37.605800     0.000000
                             23.502600     0.000000
                              8.469130     0.000000
                              4.706870     0.000000
                              2.556820     0.000000
                              1.356470     0.000000
                              0.646820     0.000000
                              0.307888     0.000000
                              0.142507     1.000000
                              0.063702     0.000000
  128.1 A     2  2pz       1328.640000     0.000000
                            312.536000     0.000000
                             74.190000     0.000000
                             37.605800     0.000000
                             23.502600     0.000000
                              8.469130     0.000000
                              4.706870     0.000000
                              2.556820     0.000000
                              1.356470     0.000000
                              0.646820     0.000000
                              0.307888     0.000000
                              0.142507     1.000000
                              0.063702     0.000000
  129.1 A     2  2px       1328.640000     0.000000
                            312.536000     0.000000
                             74.190000     0.000000
                             37.605800     0.000000
                             23.502600     0.000000
                              8.469130     0.000000
                              4.706870     0.000000
                              2.556820     0.000000
                              1.356470     0.000000
                              0.646820     0.000000
                              0.307888     0.000000
                              0.142507     0.000000
                              0.063702     1.000000
  130.1 A     2  2py       1328.640000     0.000000
                            312.536000     0.000000
                             74.190000     0.000000
                             37.605800     0.000000
                             23.502600     0.000000
                              8.469130     0.000000
                              4.706870     0.000000
                              2.556820     0.000000
                              1.356470     0.000000
                              0.646820     0.000000
                              0.307888     0.000000
                              0.142507     0.000000
                              0.063702     1.000000
  131.1 A     2  2pz       1328.640000     0.000000
                            312.536000     0.000000
                             74.190000     0.000000
                             37.605800     0.000000
                             23.502600     0.000000
                              8.469130     0.000000
                              4.706870     0.000000
                              2.556820     0.000000
                              1.356470     0.000000
                              0.646820     0.000000
                              0.307888     0.000000
                              0.142507     0.000000
                              0.063702     1.000000
  132.1 A     2  2px          0.026900     1.000000
  133.1 A     2  2py          0.026900     1.000000
  134.1 A     2  2pz          0.026900     1.000000
  135.1 A     2  3d0       1441.580000     0.000060
                            437.691000     0.000625
                            172.153000     0.004153
                             78.212400     0.021012
                             39.608200     0.062814
                             20.344000     0.135829
                             10.739200     0.229132
                              5.707730     0.293693
                              3.021940     0.286346
                              1.576690     0.190019
                              0.784411     0.068694
                              0.335235     0.008403
  136.1 A     2  3d2-      1441.580000     0.000060
                            437.691000     0.000625
                            172.153000     0.004153
                             78.212400     0.021012
                             39.608200     0.062814
                             20.344000     0.135829
                             10.739200     0.229132
                              5.707730     0.293693
                              3.021940     0.286346
                              1.576690     0.190019
                              0.784411     0.068694
                              0.335235     0.008403
  137.1 A     2  3d1+      1441.580000     0.000060
                            437.691000     0.000625
                            172.153000     0.004153
                             78.212400     0.021012
                             39.608200     0.062814
                             20.344000     0.135829
                             10.739200     0.229132
                              5.707730     0.293693
                              3.021940     0.286346
                              1.576690     0.190019
                              0.784411     0.068694
                              0.335235     0.008403
  138.1 A     2  3d2+      1441.580000     0.000060
                            437.691000     0.000625
                            172.153000     0.004153
                             78.212400     0.021012
                             39.608200     0.062814
                             20.344000     0.135829
                             10.739200     0.229132
                              5.707730     0.293693
                              3.021940     0.286346
                              1.576690     0.190019
                              0.784411     0.068694
                              0.335235     0.008403
  139.1 A     2  3d1-      1441.580000     0.000060
                            437.691000     0.000625
                            172.153000     0.004153
                             78.212400     0.021012
                             39.608200     0.062814
                             20.344000     0.135829
                             10.739200     0.229132
                              5.707730     0.293693
                              3.021940     0.286346
                              1.576690     0.190019
                              0.784411     0.068694
                              0.335235     0.008403
  140.1 A     2  3d0          2.660800     1.000000
  141.1 A     2  3d2-         2.660800     1.000000
  142.1 A     2  3d1+         2.660800     1.000000
  143.1 A     2  3d2+         2.660800     1.000000
  144.1 A     2  3d1-         2.660800     1.000000
  145.1 A     2  3d0          0.743400     1.000000
  146.1 A     2  3d2-         0.743400     1.000000
  147.1 A     2  3d1+         0.743400     1.000000
  148.1 A     2  3d2+         0.743400     1.000000
  149.1 A     2  3d1-         0.743400     1.000000
  150.1 A     2  3d0          0.409500     1.000000
  151.1 A     2  3d2-         0.409500     1.000000
  152.1 A     2  3d1+         0.409500     1.000000
  153.1 A     2  3d2+         0.409500     1.000000
  154.1 A     2  3d1-         0.409500     1.000000
  155.1 A     2  3d0          0.225600     1.000000
  156.1 A     2  3d2-         0.225600     1.000000
  157.1 A     2  3d1+         0.225600     1.000000
  158.1 A     2  3d2+         0.225600     1.000000
  159.1 A     2  3d1-         0.225600     1.000000
  160.1 A     2  3d0          0.124200     1.000000
  161.1 A     2  3d2-         0.124200     1.000000
  162.1 A     2  3d1+         0.124200     1.000000
  163.1 A     2  3d2+         0.124200     1.000000
  164.1 A     2  3d1-         0.124200     1.000000
  165.1 A     2  4f1+         3.511600     1.000000
  166.1 A     2  4f1-         3.511600     1.000000
  167.1 A     2  4f0          3.511600     1.000000
  168.1 A     2  4f3+         3.511600     1.000000
  169.1 A     2  4f2-         3.511600     1.000000
  170.1 A     2  4f3-         3.511600     1.000000
  171.1 A     2  4f2+         3.511600     1.000000
  172.1 A     2  4f1+         0.842500     1.000000
  173.1 A     2  4f1-         0.842500     1.000000
  174.1 A     2  4f0          0.842500     1.000000
  175.1 A     2  4f3+         0.842500     1.000000
  176.1 A     2  4f2-         0.842500     1.000000
  177.1 A     2  4f3-         0.842500     1.000000
  178.1 A     2  4f2+         0.842500     1.000000
  179.1 A     2  4f1+         0.405300     1.000000
  180.1 A     2  4f1-         0.405300     1.000000
  181.1 A     2  4f0          0.405300     1.000000
  182.1 A     2  4f3+         0.405300     1.000000
  183.1 A     2  4f2-         0.405300     1.000000
  184.1 A     2  4f3-         0.405300     1.000000
  185.1 A     2  4f2+         0.405300     1.000000
  186.1 A     2  4f1+         0.195000     1.000000
  187.1 A     2  4f1-         0.195000     1.000000
  188.1 A     2  4f0          0.195000     1.000000
  189.1 A     2  4f3+         0.195000     1.000000
  190.1 A     2  4f2-         0.195000     1.000000
  191.1 A     2  4f3-         0.195000     1.000000
  192.1 A     2  4f2+         0.195000     1.000000
  193.1 A     2  5g0          0.794700     1.000000
  194.1 A     2  5g2-         0.794700     1.000000
  195.1 A     2  5g1+         0.794700     1.000000
  196.1 A     2  5g4+         0.794700     1.000000
  197.1 A     2  5g1-         0.794700     1.000000
  198.1 A     2  5g2+         0.794700     1.000000
  199.1 A     2  5g4-         0.794700     1.000000
  200.1 A     2  5g3+         0.794700     1.000000
  201.1 A     2  5g3-         0.794700     1.000000
  202.1 A     2  5g0          0.315500     1.000000
  203.1 A     2  5g2-         0.315500     1.000000
  204.1 A     2  5g1+         0.315500     1.000000
  205.1 A     2  5g4+         0.315500     1.000000
  206.1 A     2  5g1-         0.315500     1.000000
  207.1 A     2  5g2+         0.315500     1.000000
  208.1 A     2  5g4-         0.315500     1.000000
  209.1 A     2  5g3+         0.315500     1.000000
  210.1 A     2  5g3-         0.315500     1.000000

 NUCLEAR CHARGE:                   50
 NUMBER OF PRIMITIVE AOS:         462
 NUMBER OF SYMMETRY AOS:          380
 NUMBER OF CONTRACTIONS:          210   (  210A   )
 NUMBER OF INNER CORE ORBITALS:     0   (    0A   )
 NUMBER OF OUTER CORE ORBITALS:    18   (   18A   )
 NUMBER OF VALENCE ORBITALS:        8   (    8A   )


 LX: A            LY: A            LZ: A  


 NUCLEAR REPULSION ENERGY  144.99594775


 Library entry BR     S VQZ-PP-F12_MP2       selected for DF group  1
 Library entry BR     P VQZ-PP-F12_MP2       selected for DF group  1
 Library entry BR     D VQZ-PP-F12_MP2       selected for DF group  1
 Library entry BR     F VQZ-PP-F12_MP2       selected for DF group  1
 Library entry BR     G VQZ-PP-F12_MP2       selected for DF group  1
 Library entry BR     H VQZ-PP-F12_MP2       selected for DF group  1
 Library entry BR     I VQZ-PP-F12_MP2       selected for DF group  1
 Basis set:    DF
 Basis size:   694
 Sphericals:   T
 =======================================
 Centre l       exponent    contractions
 =======================================

    1   s      59.227000      1.000000
    1   s      35.106500      1.000000
    1   s      18.587200      1.000000
    1   s      12.360000      1.000000
    1   s       6.297250      1.000000
    1   s       3.513790      1.000000
    1   s       2.094800      1.000000
    1   s       1.250730      1.000000
    1   s       0.722810      1.000000
    1   s       0.426576      1.000000
    1   s       0.235040      1.000000
    1   s       0.132262      1.000000
    1   s       0.053374      1.000000

    1   p      70.118000      1.000000
    1   p      34.492500      1.000000
    1   p      17.491200      1.000000
    1   p       9.325760      1.000000
    1   p       5.576690      1.000000
    1   p       3.387700      1.000000
    1   p       1.977900      1.000000
    1   p       1.161320      1.000000
    1   p       0.748026      1.000000
    1   p       0.457340      1.000000
    1   p       0.249059      1.000000
    1   p       0.148137      1.000000
    1   p       0.077196      1.000000

    1   d      36.759600      1.000000
    1   d      18.860800      1.000000
    1   d       9.011140      1.000000
    1   d       4.940870      1.000000
    1   d       2.676400      1.000000
    1   d       1.522760      1.000000
    1   d       0.907734      1.000000
    1   d       0.566645      1.000000
    1   d       0.309292      1.000000
    1   d       0.147545      1.000000
    1   d       0.076855      1.000000

    1   f      37.444700      1.000000
    1   f      17.334200      1.000000
    1   f       9.084180      1.000000
    1   f       4.862350      1.000000
    1   f       3.208560      1.000000
    1   f       1.428520      1.000000
    1   f       0.868578      1.000000
    1   f       0.532548      1.000000
    1   f       0.289964      1.000000

    1   g      66.013200      1.000000
    1   g      26.222900      1.000000
    1   g      12.165400      1.000000
    1   g       5.516340      1.000000
    1   g       3.075250      1.000000
    1   g       1.712650      1.000000
    1   g       0.899101      1.000000
    1   g       0.541558      1.000000

    1   h      31.036300      1.000000
    1   h      16.975200      1.000000
    1   h       6.583180      1.000000
    1   h       2.869410      1.000000
    1   h       1.965460      1.000000
    1   h       0.644160      1.000000

    1   i       6.261150      1.000000
    1   i       3.019260      1.000000
    1   i       1.207520      1.000000

    2   s      59.227000      1.000000
    2   s      35.106500      1.000000
    2   s      18.587200      1.000000
    2   s      12.360000      1.000000
    2   s       6.297250      1.000000
    2   s       3.513790      1.000000
    2   s       2.094800      1.000000
    2   s       1.250730      1.000000
    2   s       0.722810      1.000000
    2   s       0.426576      1.000000
    2   s       0.235040      1.000000
    2   s       0.132262      1.000000
    2   s       0.053374      1.000000

    2   p      70.118000      1.000000
    2   p      34.492500      1.000000
    2   p      17.491200      1.000000
    2   p       9.325760      1.000000
    2   p       5.576690      1.000000
    2   p       3.387700      1.000000
    2   p       1.977900      1.000000
    2   p       1.161320      1.000000
    2   p       0.748026      1.000000
    2   p       0.457340      1.000000
    2   p       0.249059      1.000000
    2   p       0.148137      1.000000
    2   p       0.077196      1.000000

    2   d      36.759600      1.000000
    2   d      18.860800      1.000000
    2   d       9.011140      1.000000
    2   d       4.940870      1.000000
    2   d       2.676400      1.000000
    2   d       1.522760      1.000000
    2   d       0.907734      1.000000
    2   d       0.566645      1.000000
    2   d       0.309292      1.000000
    2   d       0.147545      1.000000
    2   d       0.076855      1.000000

    2   f      37.444700      1.000000
    2   f      17.334200      1.000000
    2   f       9.084180      1.000000
    2   f       4.862350      1.000000
    2   f       3.208560      1.000000
    2   f       1.428520      1.000000
    2   f       0.868578      1.000000
    2   f       0.532548      1.000000
    2   f       0.289964      1.000000

    2   g      66.013200      1.000000
    2   g      26.222900      1.000000
    2   g      12.165400      1.000000
    2   g       5.516340      1.000000
    2   g       3.075250      1.000000
    2   g       1.712650      1.000000
    2   g       0.899101      1.000000
    2   g       0.541558      1.000000

    2   h      31.036300      1.000000
    2   h      16.975200      1.000000
    2   h       6.583180      1.000000
    2   h       2.869410      1.000000
    2   h       1.965460      1.000000
    2   h       0.644160      1.000000

    2   i       6.261150      1.000000
    2   i       3.019260      1.000000
    2   i       1.207520      1.000000
 =======================================

 Library entry BR     S def2-QZVPP-JKFIT     selected for JK group  1
 Library entry BR     P def2-QZVPP-JKFIT     selected for JK group  1
 Library entry BR     D def2-QZVPP-JKFIT     selected for JK group  1
 Library entry BR     F def2-QZVPP-JKFIT     selected for JK group  1
 Library entry BR     G def2-QZVPP-JKFIT     selected for JK group  1
 Library entry BR     H def2-QZVPP-JKFIT     selected for JK group  1
 Basis set:    JK
 Basis size:   532
 Sphericals:   T
 =======================================
 Centre l       exponent    contractions
 =======================================

    1   s   18095.306651      0.145063
    1   s    8408.841805      0.057914
    1   s    4014.768514      0.412299
    1   s    1967.734255      0.482317

    1   s     989.106218      1.000000
    1   s     509.376962      1.000000
    1   s     268.450697      1.000000
    1   s     144.606194      1.000000
    1   s      79.512228      1.000000
    1   s      44.564896      1.000000
    1   s      25.422121      1.000000
    1   s      14.736716      1.000000
    1   s       8.666305      1.000000
    1   s       5.161222      1.000000
    1   s       3.107187      1.000000
    1   s       1.887394      1.000000
    1   s       1.154516      1.000000
    1   s       0.709780      1.000000
    1   s       0.437688      1.000000
    1   s       0.270175      1.000000

    1   p    3076.100366      0.165169
    1   p    1316.038916      0.368721

    1   p     577.112256      1.000000
    1   p     258.987909      1.000000
    1   p     118.734033      1.000000
    1   p      55.506313      1.000000
    1   p      26.407305      1.000000
    1   p      12.758945      1.000000
    1   p       6.246898      1.000000
    1   p       3.092313      1.000000
    1   p       1.544004      1.000000
    1   p       0.775727      1.000000
    1   p       0.391197      1.000000
    1   p       0.197526      1.000000

    1   d     826.570903      0.261853
    1   d     298.354501      0.965108

    1   d     133.246635      1.000000
    1   d      63.670862      1.000000
    1   d      29.183415      1.000000
    1   d      13.061102      1.000000
    1   d       6.429000      1.000000
    1   d       3.105967      1.000000
    1   d       1.519500      1.000000
    1   d       0.750743      1.000000
    1   d       0.373568      1.000000
    1   d       0.186686      1.000000
    1   d       0.093428      1.000000

    1   f     313.252570      0.226938
    1   f     120.080711      0.973909

    1   f      55.096696      1.000000
    1   f      27.041382      1.000000
    1   f      13.017646      1.000000
    1   f       6.280999      1.000000
    1   f       2.880246      1.000000
    1   f       1.385371      1.000000
    1   f       0.737292      1.000000
    1   f       0.364923      1.000000

    1   g     112.137412      0.197560
    1   g      42.959550      0.980291

    1   g      18.858800      1.000000
    1   g       8.579437      1.000000
    1   g       3.927493      1.000000
    1   g       1.624022      1.000000
    1   g       0.761551      1.000000

    1   h       9.434703      1.000000
    1   h       3.144901      1.000000
    1   h       1.048300      1.000000

    2   s   18095.306651      0.145063
    2   s    8408.841805      0.057914
    2   s    4014.768514      0.412299
    2   s    1967.734255      0.482317

    2   s     989.106218      1.000000
    2   s     509.376962      1.000000
    2   s     268.450697      1.000000
    2   s     144.606194      1.000000
    2   s      79.512228      1.000000
    2   s      44.564896      1.000000
    2   s      25.422121      1.000000
    2   s      14.736716      1.000000
    2   s       8.666305      1.000000
    2   s       5.161222      1.000000
    2   s       3.107187      1.000000
    2   s       1.887394      1.000000
    2   s       1.154516      1.000000
    2   s       0.709780      1.000000
    2   s       0.437688      1.000000
    2   s       0.270175      1.000000

    2   p    3076.100366      0.165169
    2   p    1316.038916      0.368721

    2   p     577.112256      1.000000
    2   p     258.987909      1.000000
    2   p     118.734033      1.000000
    2   p      55.506313      1.000000
    2   p      26.407305      1.000000
    2   p      12.758945      1.000000
    2   p       6.246898      1.000000
    2   p       3.092313      1.000000
    2   p       1.544004      1.000000
    2   p       0.775727      1.000000
    2   p       0.391197      1.000000
    2   p       0.197526      1.000000

    2   d     826.570903      0.261853
    2   d     298.354501      0.965108

    2   d     133.246635      1.000000
    2   d      63.670862      1.000000
    2   d      29.183415      1.000000
    2   d      13.061102      1.000000
    2   d       6.429000      1.000000
    2   d       3.105967      1.000000
    2   d       1.519500      1.000000
    2   d       0.750743      1.000000
    2   d       0.373568      1.000000
    2   d       0.186686      1.000000
    2   d       0.093428      1.000000

    2   f     313.252570      0.226938
    2   f     120.080711      0.973909

    2   f      55.096696      1.000000
    2   f      27.041382      1.000000
    2   f      13.017646      1.000000
    2   f       6.280999      1.000000
    2   f       2.880246      1.000000
    2   f       1.385371      1.000000
    2   f       0.737292      1.000000
    2   f       0.364923      1.000000

    2   g     112.137412      0.197560
    2   g      42.959550      0.980291

    2   g      18.858800      1.000000
    2   g       8.579437      1.000000
    2   g       3.927493      1.000000
    2   g       1.624022      1.000000
    2   g       0.761551      1.000000

    2   h       9.434703      1.000000
    2   h       3.144901      1.000000
    2   h       1.048300      1.000000
 =======================================

 Library entry BR     S def2-QZVPP-JKFIT     selected for RI group  1
 Library entry BR     P def2-QZVPP-JKFIT     selected for RI group  1
 Library entry BR     D def2-QZVPP-JKFIT     selected for RI group  1
 Library entry BR     F def2-QZVPP-JKFIT     selected for RI group  1
 Library entry BR     G def2-QZVPP-JKFIT     selected for RI group  1
 Library entry BR     H def2-QZVPP-JKFIT     selected for RI group  1
 Basis set:    RI
 Basis size:   532
 Sphericals:   T
 =======================================
 Centre l       exponent    contractions
 =======================================

    1   s   18095.306651      0.145063
    1   s    8408.841805      0.057914
    1   s    4014.768514      0.412299
    1   s    1967.734255      0.482317

    1   s     989.106218      1.000000
    1   s     509.376962      1.000000
    1   s     268.450697      1.000000
    1   s     144.606194      1.000000
    1   s      79.512228      1.000000
    1   s      44.564896      1.000000
    1   s      25.422121      1.000000
    1   s      14.736716      1.000000
    1   s       8.666305      1.000000
    1   s       5.161222      1.000000
    1   s       3.107187      1.000000
    1   s       1.887394      1.000000
    1   s       1.154516      1.000000
    1   s       0.709780      1.000000
    1   s       0.437688      1.000000
    1   s       0.270175      1.000000

    1   p    3076.100366      0.165169
    1   p    1316.038916      0.368721

    1   p     577.112256      1.000000
    1   p     258.987909      1.000000
    1   p     118.734033      1.000000
    1   p      55.506313      1.000000
    1   p      26.407305      1.000000
    1   p      12.758945      1.000000
    1   p       6.246898      1.000000
    1   p       3.092313      1.000000
    1   p       1.544004      1.000000
    1   p       0.775727      1.000000
    1   p       0.391197      1.000000
    1   p       0.197526      1.000000

    1   d     826.570903      0.261853
    1   d     298.354501      0.965108

    1   d     133.246635      1.000000
    1   d      63.670862      1.000000
    1   d      29.183415      1.000000
    1   d      13.061102      1.000000
    1   d       6.429000      1.000000
    1   d       3.105967      1.000000
    1   d       1.519500      1.000000
    1   d       0.750743      1.000000
    1   d       0.373568      1.000000
    1   d       0.186686      1.000000
    1   d       0.093428      1.000000

    1   f     313.252570      0.226938
    1   f     120.080711      0.973909

    1   f      55.096696      1.000000
    1   f      27.041382      1.000000
    1   f      13.017646      1.000000
    1   f       6.280999      1.000000
    1   f       2.880246      1.000000
    1   f       1.385371      1.000000
    1   f       0.737292      1.000000
    1   f       0.364923      1.000000

    1   g     112.137412      0.197560
    1   g      42.959550      0.980291

    1   g      18.858800      1.000000
    1   g       8.579437      1.000000
    1   g       3.927493      1.000000
    1   g       1.624022      1.000000
    1   g       0.761551      1.000000

    1   h       9.434703      1.000000
    1   h       3.144901      1.000000
    1   h       1.048300      1.000000

    2   s   18095.306651      0.145063
    2   s    8408.841805      0.057914
    2   s    4014.768514      0.412299
    2   s    1967.734255      0.482317

    2   s     989.106218      1.000000
    2   s     509.376962      1.000000
    2   s     268.450697      1.000000
    2   s     144.606194      1.000000
    2   s      79.512228      1.000000
    2   s      44.564896      1.000000
    2   s      25.422121      1.000000
    2   s      14.736716      1.000000
    2   s       8.666305      1.000000
    2   s       5.161222      1.000000
    2   s       3.107187      1.000000
    2   s       1.887394      1.000000
    2   s       1.154516      1.000000
    2   s       0.709780      1.000000
    2   s       0.437688      1.000000
    2   s       0.270175      1.000000

    2   p    3076.100366      0.165169
    2   p    1316.038916      0.368721

    2   p     577.112256      1.000000
    2   p     258.987909      1.000000
    2   p     118.734033      1.000000
    2   p      55.506313      1.000000
    2   p      26.407305      1.000000
    2   p      12.758945      1.000000
    2   p       6.246898      1.000000
    2   p       3.092313      1.000000
    2   p       1.544004      1.000000
    2   p       0.775727      1.000000
    2   p       0.391197      1.000000
    2   p       0.197526      1.000000

    2   d     826.570903      0.261853
    2   d     298.354501      0.965108

    2   d     133.246635      1.000000
    2   d      63.670862      1.000000
    2   d      29.183415      1.000000
    2   d      13.061102      1.000000
    2   d       6.429000      1.000000
    2   d       3.105967      1.000000
    2   d       1.519500      1.000000
    2   d       0.750743      1.000000
    2   d       0.373568      1.000000
    2   d       0.186686      1.000000
    2   d       0.093428      1.000000

    2   f     313.252570      0.226938
    2   f     120.080711      0.973909

    2   f      55.096696      1.000000
    2   f      27.041382      1.000000
    2   f      13.017646      1.000000
    2   f       6.280999      1.000000
    2   f       2.880246      1.000000
    2   f       1.385371      1.000000
    2   f       0.737292      1.000000
    2   f       0.364923      1.000000

    2   g     112.137412      0.197560
    2   g      42.959550      0.980291

    2   g      18.858800      1.000000
    2   g       8.579437      1.000000
    2   g       3.927493      1.000000
    2   g       1.624022      1.000000
    2   g       0.761551      1.000000

    2   h       9.434703      1.000000
    2   h       3.144901      1.000000
    2   h       1.048300      1.000000
 =======================================


 **********************************************************************************************************************************

 EXTRA SYMMETRY OF AOS IN SYMMETRY 1:   1 1 1 1 1 1 1 1 2 3   1 2 3 1 2 3 1 2 3 1   2 3 1 2 3 1 2 3 1 1   4 2 5 3 1 4 2 5 3 1
                                        4 2 5 3 1 4 2 5 3 1   4 2 5 3 1 4 2 5 3 2   3 1 6 4 7 5 2 3 1 6   4 7 5 2 3 1 6 4 7 5
                                        2 3 1 6 4 7 5 1 4 2   8 3 5 9 6 7 1 4 2 8   3 5 9 6 7 1 1 1 1 1   1 1 1 2 3 1 2 3 1 2
                                        3 1 2 3 1 2 3 1 2 3   1 2 3 1 1 4 2 5 3 1   4 2 5 3 1 4 2 5 3 1   4 2 5 3 1 4 2 5 3 1
                                        4 2 5 3 2 3 1 6 4 7   5 2 3 1 6 4 7 5 2 3   1 6 4 7 5 2 3 1 6 4   7 5 1 4 2 8 3 5 9 6
                                        7 1 4 2 8 3 5 9 6 7


 Eigenvalues of metric

         1 0.206E-04 0.119E-03 0.143E-03 0.227E-03 0.383E-03 0.798E-03 0.919E-03 0.919E-03


 OPERATOR DM      FOR CENTER  0  COORDINATES:    0.000000    0.000000    0.000000


 **********************************************************************************************************************************
 DATASETS  * FILE   NREC   LENGTH (MB)   RECORD NAMES
              1      19       30.87       500      610      700      900      950      970     1000      129      960     1100   
                                          VAR    BASINP    GEOM    SYMINP    ZMAT    AOBASIS   BASIS     P2S    ABASIS      S 
                                         1400     1410     1420     1200     1210     1080     1700     1600     1650   
                                           T        V       ECP      H0       H01     AOSYM    OPER      SMH    MOLCAS    

 PROGRAMS   *        TOTAL       INT
 CPU TIMES  *         0.56      0.42
 REAL TIME  *         1.27 SEC
 DISK USED  *        31.23 MB (local),      499.63 MB (total)
 GA USED    *         0.00 MB       (max)       0.00 MB       (current)
 **********************************************************************************************************************************


 Program * Restricted Hartree-Fock

 Coulomb and exchange fitting
 Thresholds for fitting:       THRAO_COUL= 1.0D-15    THRAO_EXCH= 1.0D-13    THRMO= 1.0D-12    THRPROD= 1.0D-12    THRASM= 1.0D-12
                               THR2HLF=    1.0D-12

 Basis set JK loaded. Number of basis functions: 532

 Orbital guess generated from atomic densities. Full valence occupancy:   26
 Using density fitting in orbital guess


 Initial occupancy:  25

 NELEC=   50   SYM=1   MS2= 0   THRE=1.0D-11   THRD=1.0D-06   THRG=1.0D-06  HFMA2=F  DIIS_START=2   DIIS_MAX=10   DIIS_INCORE=F

 Level shifts:    0.00 (CLOSED)    0.00 (OPEN)    0.30 (GAP_MIN)

 ITER           ETOT              DE          GRAD        DDIFF     DIIS  NEXP   TIME(IT)  TIME(TOT)  DIAG
   1     -830.99743006    -830.99743006     0.00D+00     0.66D-01     0     0       0.06      0.14    start
   2     -831.00843379      -0.01100373     0.18D-02     0.21D-02     1     0       0.06      0.20    diag
   3     -831.01083832      -0.00240453     0.10D-02     0.63D-03     2     0       0.06      0.26    diag
   4     -831.01099684      -0.00015852     0.15D-03     0.16D-03     3     0       0.06      0.32    diag
   5     -831.01101336      -0.00001652     0.46D-04     0.48D-04     4     0       0.07      0.39    diag
   6     -831.01101448      -0.00000112     0.14D-04     0.13D-04     5     0       0.06      0.45    diag
   7     -831.01101453      -0.00000005     0.32D-05     0.37D-05     6     0       0.07      0.52    diag
   8     -831.01101453      -0.00000000     0.40D-06     0.66D-06     7     0       0.06      0.58    fixocc
   9     -831.01101453      -0.00000000     0.61D-07     0.82D-07     8     0       0.06      0.64    diag
  10     -831.01101453       0.00000000     0.57D-08     0.82D-08     9     0       0.06      0.70    diag/orth
  11     -831.01101453      -0.00000000     0.64D-09     0.85D-09     0     0       0.06      0.76    diag

 Final occupancy:  25

 !RHF STATE 1.1 Energy               -831.011014526583
  RHF One-electron energy           -1748.806254703743
  RHF Two-electron energy             772.799292428640
  RHF Kinetic energy                  591.461180385403
  RHF Nuclear energy                  144.995947748520
  RHF Virial quotient                  -1.405013620649

 !RHF STATE 1.1 Dipole moment          -0.00000000     0.00000000    -0.00000000
 Dipole moment /Debye                  -0.00000000     0.00000000    -0.00000000

 ELECTRON ORBITALS
 =================

  Orbital  Occupation    Energy    Cen Mu Typ  Coefficients
    1.1     2.00000    -9.87170     1  1  s    0.70729    2  1  s    0.70729
    2.1     2.00000    -9.87164     1  1  s    0.70718    2  1  s   -0.70718
    3.1     2.00000    -7.62571     1  1  pz   0.70548    2  1  pz  -0.70548
    4.1     2.00000    -7.62557     1  1  pz   0.70573    2  1  pz   0.70573
    5.1     2.00000    -7.61463     1  1  px   0.51352    1  1  py  -0.48714    2  1  px   0.51352    2  1  py  -0.48714
    6.1     2.00000    -7.61463     1  1  px   0.48714    1  1  py   0.51352    2  1  px   0.48714    2  1  py   0.51352
    7.1     2.00000    -7.61461     1  1  px  -0.47591    1  1  py   0.52406    2  1  px   0.47591    2  1  py  -0.52406
    8.1     2.00000    -7.61461     1  1  px   0.52406    1  1  py   0.47591    2  1  px  -0.52406    2  1  py  -0.47591
    9.1     2.00000    -3.17938     1  1  d0   0.70590    2  1  d0   0.70590
   10.1     2.00000    -3.17693     1  1  d0   0.70692    2  1  d0  -0.70692
   11.1     2.00000    -3.17403     1  1  d1+  0.68650    2  1  d1+ -0.68650
   12.1     2.00000    -3.17403     1  1  d1-  0.68650    2  1  d1- -0.68650
   13.1     2.00000    -3.17323     1  1  d1-  0.68543    2  1  d1-  0.68543
   14.1     2.00000    -3.17323     1  1  d1+  0.68543    2  1  d1+  0.68543
   15.1     2.00000    -3.16139     1  1  d2+  0.67606    2  1  d2+  0.67606
   16.1     2.00000    -3.16139     1  1  d2-  0.67606    2  1  d2-  0.67606
   17.1     2.00000    -3.16134     1  1  d2+  0.70352    2  1  d2+ -0.70352
   18.1     2.00000    -3.16134     1  1  d2-  0.70352    2  1  d2- -0.70352
   19.1     2.00000    -1.12629     1  2  s    0.66079    2  2  s    0.66079
   20.1     2.00000    -0.97774     1  2  s    0.72302    2  2  s   -0.72302
   21.1     2.00000    -0.53316     1  2  pz   0.63519    2  2  pz  -0.63519
   22.1     2.00000    -0.50390     1  2  py   0.66111    2  2  py   0.66111
   23.1     2.00000    -0.50390     1  2  px   0.66111    2  2  px   0.66111
   24.1     2.00000    -0.40474     1  2  px   0.32052    1  2  py   0.66580    2  2  px  -0.32052    2  2  py  -0.66580
   25.1     2.00000    -0.40474     1  2  px   0.66580    1  2  py  -0.32052    2  2  px  -0.66580    2  2  py   0.32052


 HOMO     25.1    -0.404735 =     -11.0134eV
 LUMO     26.1    -0.004606 =      -0.1253eV
 LUMO-HOMO         0.400129 =      10.8881eV

 Orbitals saved in record  2100.2


 **********************************************************************************************************************************
 DATASETS  * FILE   NREC   LENGTH (MB)   RECORD NAMES
              1      19       30.87       500      610      700      900      950      970     1000      129      960     1100   
                                          VAR    BASINP    GEOM    SYMINP    ZMAT    AOBASIS   BASIS     P2S    ABASIS      S 
                                         1400     1410     1420     1200     1210     1080     1700     1600     1650   
                                           T        V       ECP      H0       H01     AOSYM    OPER      SMH    MOLCAS    

              2       4        1.08       700     1000      520     2100   
                                         GEOM     BASIS   MCVARS     RHF  

 PROGRAMS   *        TOTAL     DF-HF       INT
 CPU TIMES  *         1.37      0.80      0.42
 REAL TIME  *         3.04 SEC
 DISK USED  *        35.08 MB (local),      561.26 MB (total)
 SF USED    *        22.16 MB
 GA USED    *         0.00 MB       (max)       0.00 MB       (current)
 **********************************************************************************************************************************

 Library entry BR     S VQZ-PP-F12_MP2       selected for DF group  1
 Library entry BR     P VQZ-PP-F12_MP2       selected for DF group  1
 Library entry BR     D VQZ-PP-F12_MP2       selected for DF group  1
 Library entry BR     F VQZ-PP-F12_MP2       selected for DF group  1
 Library entry BR     G VQZ-PP-F12_MP2       selected for DF group  1
 Library entry BR     H VQZ-PP-F12_MP2       selected for DF group  1
 Library entry BR     I VQZ-PP-F12_MP2       selected for DF group  1
 Basis set:    DF
 Basis size:   694
 Sphericals:   T
 =======================================
[...]
    1   p       0.148137      1.000000
    1   p       0.077196      1.000000

    1   d      36.759600      1.000000
    1   d      18.860800      1.000000
    1   d       9.011140      1.000000
    1   d       4.940870      1.000000
    1   d       2.676400      1.000000
    1   d       1.522760      1.000000
    1   d       0.907734      1.000000
    1   d       0.566645      1.000000
    1   d       0.309292      1.000000
    1   d       0.147545      1.000000
    1   d       0.076855      1.000000

    1   f      37.444700      1.000000
    1   f      17.334200      1.000000
    1   f       9.084180      1.000000
    1   f       4.862350      1.000000
    1   f       3.208560      1.000000
    1   f       1.428520      1.000000
    1   f       0.868578      1.000000
    1   f       0.532548      1.000000
    1   f       0.289964      1.000000

    1   g      66.013200      1.000000
    1   g      26.222900      1.000000
    1   g      12.165400      1.000000
    1   g       5.516340      1.000000
    1   g       3.075250      1.000000
    1   g       1.712650      1.000000
    1   g       0.899101      1.000000
    1   g       0.541558      1.000000

    1   h      31.036300      1.000000
    1   h      16.975200      1.000000
    1   h       6.583180      1.000000
    1   h       2.869410      1.000000
    1   h       1.965460      1.000000
    1   h       0.644160      1.000000

    1   i       6.261150      1.000000
    1   i       3.019260      1.000000
    1   i       1.207520      1.000000

    2   s      59.227000      1.000000
    2   s      35.106500      1.000000
    2   s      18.587200      1.000000
    2   s      12.360000      1.000000
    2   s       6.297250      1.000000
    2   s       3.513790      1.000000
    2   s       2.094800      1.000000
    2   s       1.250730      1.000000
    2   s       0.722810      1.000000
    2   s       0.426576      1.000000
    2   s       0.235040      1.000000
    2   s       0.132262      1.000000
    2   s       0.053374      1.000000

    2   p      70.118000      1.000000
    2   p      34.492500      1.000000
    2   p      17.491200      1.000000
    2   p       9.325760      1.000000
    2   p       5.576690      1.000000
    2   p       3.387700      1.000000
    2   p       1.977900      1.000000
    2   p       1.161320      1.000000
    2   p       0.748026      1.000000
    2   p       0.457340      1.000000
    2   p       0.249059      1.000000
    2   p       0.148137      1.000000
    2   p       0.077196      1.000000

    2   d      36.759600      1.000000
    2   d      18.860800      1.000000
    2   d       9.011140      1.000000
    2   d       4.940870      1.000000
    2   d       2.676400      1.000000
    2   d       1.522760      1.000000
    2   d       0.907734      1.000000
    2   d       0.566645      1.000000
    2   d       0.309292      1.000000
    2   d       0.147545      1.000000
    2   d       0.076855      1.000000

    2   f      37.444700      1.000000
    2   f      17.334200      1.000000
    2   f       9.084180      1.000000
    2   f       4.862350      1.000000
    2   f       3.208560      1.000000
    2   f       1.428520      1.000000
    2   f       0.868578      1.000000
    2   f       0.532548      1.000000
    2   f       0.289964      1.000000

    2   g      66.013200      1.000000
    2   g      26.222900      1.000000
    2   g      12.165400      1.000000
    2   g       5.516340      1.000000
    2   g       3.075250      1.000000
    2   g       1.712650      1.000000
    2   g       0.899101      1.000000
    2   g       0.541558      1.000000

    2   h      31.036300      1.000000
    2   h      16.975200      1.000000
    2   h       6.583180      1.000000
    2   h       2.869410      1.000000
    2   h       1.965460      1.000000
    2   h       0.644160      1.000000

    2   i       6.261150      1.000000
    2   i       3.019260      1.000000
    2   i       1.207520      1.000000
 =======================================

 Library entry BR     S def2-QZVPP-JKFIT     selected for JK group  1
 Library entry BR     P def2-QZVPP-JKFIT     selected for JK group  1
 Library entry BR     D def2-QZVPP-JKFIT     selected for JK group  1
 Library entry BR     F def2-QZVPP-JKFIT     selected for JK group  1
 Library entry BR     G def2-QZVPP-JKFIT     selected for JK group  1
 Library entry BR     H def2-QZVPP-JKFIT     selected for JK group  1
 Basis set:    JK
 Basis size:   532
 Sphericals:   T
 =======================================
 Centre l       exponent    contractions
 =======================================

    1   s   18095.306651      0.145063
    1   s    8408.841805      0.057914
    1   s    4014.768514      0.412299
    1   s    1967.734255      0.482317

    1   s     989.106218      1.000000
    1   s     509.376962      1.000000
    1   s     268.450697      1.000000
    1   s     144.606194      1.000000
    1   s      79.512228      1.000000
    1   s      44.564896      1.000000
    1   s      25.422121      1.000000
    1   s      14.736716      1.000000
    1   s       8.666305      1.000000
    1   s       5.161222      1.000000
    1   s       3.107187      1.000000
    1   s       1.887394      1.000000
    1   s       1.154516      1.000000
    1   s       0.709780      1.000000
    1   s       0.437688      1.000000
    1   s       0.270175      1.000000

    1   p    3076.100366      0.165169
    1   p    1316.038916      0.368721

    1   p     577.112256      1.000000
    1   p     258.987909      1.000000
    1   p     118.734033      1.000000
    1   p      55.506313      1.000000
    1   p      26.407305      1.000000
    1   p      12.758945      1.000000
    1   p       6.246898      1.000000
    1   p       3.092313      1.000000
    1   p       1.544004      1.000000
    1   p       0.775727      1.000000
    1   p       0.391197      1.000000
    1   p       0.197526      1.000000

    1   d     826.570903      0.261853
    1   d     298.354501      0.965108

    1   d     133.246635      1.000000
    1   d      63.670862      1.000000
    1   d      29.183415      1.000000
    1   d      13.061102      1.000000
    1   d       6.429000      1.000000
    1   d       3.105967      1.000000
    1   d       1.519500      1.000000
    1   d       0.750743      1.000000
    1   d       0.373568      1.000000
    1   d       0.186686      1.000000
    1   d       0.093428      1.000000

    1   f     313.252570      0.226938
    1   f     120.080711      0.973909

    1   f      55.096696      1.000000
    1   f      27.041382      1.000000
    1   f      13.017646      1.000000
    1   f       6.280999      1.000000
    1   f       2.880246      1.000000
    1   f       1.385371      1.000000
    1   f       0.737292      1.000000
    1   f       0.364923      1.000000

    1   g     112.137412      0.197560
    1   g      42.959550      0.980291

    1   g      18.858800      1.000000
    1   g       8.579437      1.000000
    1   g       3.927493      1.000000
    1   g       1.624022      1.000000
    1   g       0.761551      1.000000

    1   h       9.434703      1.000000
    1   h       3.144901      1.000000
    1   h       1.048300      1.000000

    2   s   18095.306651      0.145063
    2   s    8408.841805      0.057914
    2   s    4014.768514      0.412299
    2   s    1967.734255      0.482317

    2   s     989.106218      1.000000
    2   s     509.376962      1.000000
    2   s     268.450697      1.000000
    2   s     144.606194      1.000000
    2   s      79.512228      1.000000
    2   s      44.564896      1.000000
    2   s      25.422121      1.000000
    2   s      14.736716      1.000000
    2   s       8.666305      1.000000
    2   s       5.161222      1.000000
    2   s       3.107187      1.000000
    2   s       1.887394      1.000000
    2   s       1.154516      1.000000
    2   s       0.709780      1.000000
    2   s       0.437688      1.000000
    2   s       0.270175      1.000000

    2   p    3076.100366      0.165169
    2   p    1316.038916      0.368721

    2   p     577.112256      1.000000
    2   p     258.987909      1.000000
    2   p     118.734033      1.000000
    2   p      55.506313      1.000000
    2   p      26.407305      1.000000
    2   p      12.758945      1.000000
    2   p       6.246898      1.000000
    2   p       3.092313      1.000000
    2   p       1.544004      1.000000
    2   p       0.775727      1.000000
    2   p       0.391197      1.000000
    2   p       0.197526      1.000000

    2   d     826.570903      0.261853
    2   d     298.354501      0.965108

    2   d     133.246635      1.000000
    2   d      63.670862      1.000000
    2   d      29.183415      1.000000
    2   d      13.061102      1.000000
    2   d       6.429000      1.000000
    2   d       3.105967      1.000000
    2   d       1.519500      1.000000
    2   d       0.750743      1.000000
    2   d       0.373568      1.000000
    2   d       0.186686      1.000000
    2   d       0.093428      1.000000

    2   f     313.252570      0.226938
    2   f     120.080711      0.973909

    2   f      55.096696      1.000000
    2   f      27.041382      1.000000
    2   f      13.017646      1.000000
    2   f       6.280999      1.000000
    2   f       2.880246      1.000000
    2   f       1.385371      1.000000
    2   f       0.737292      1.000000
    2   f       0.364923      1.000000

    2   g     112.137412      0.197560
    2   g      42.959550      0.980291

    2   g      18.858800      1.000000
    2   g       8.579437      1.000000
    2   g       3.927493      1.000000
    2   g       1.624022      1.000000
    2   g       0.761551      1.000000

    2   h       9.434703      1.000000
    2   h       3.144901      1.000000
    2   h       1.048300      1.000000
 =======================================

 Library entry BR     S def2-QZVPP-JKFIT     selected for RI group  1
 Library entry BR     P def2-QZVPP-JKFIT     selected for RI group  1
 Library entry BR     D def2-QZVPP-JKFIT     selected for RI group  1
 Library entry BR     F def2-QZVPP-JKFIT     selected for RI group  1
 Library entry BR     G def2-QZVPP-JKFIT     selected for RI group  1
 Library entry BR     H def2-QZVPP-JKFIT     selected for RI group  1
 Basis set:    RI
 Basis size:   532
 Sphericals:   T
 =======================================
 Centre l       exponent    contractions
 =======================================

    1   s   18095.306651      0.145063
    1   s    8408.841805      0.057914
    1   s    4014.768514      0.412299
    1   s    1967.734255      0.482317

    1   s     989.106218      1.000000
    1   s     509.376962      1.000000
    1   s     268.450697      1.000000
    1   s     144.606194      1.000000
    1   s      79.512228      1.000000
    1   s      44.564896      1.000000
    1   s      25.422121      1.000000
    1   s      14.736716      1.000000
    1   s       8.666305      1.000000
    1   s       5.161222      1.000000
    1   s       3.107187      1.000000
    1   s       1.887394      1.000000
    1   s       1.154516      1.000000
    1   s       0.709780      1.000000
    1   s       0.437688      1.000000
    1   s       0.270175      1.000000

    1   p    3076.100366      0.165169
    1   p    1316.038916      0.368721

    1   p     577.112256      1.000000
    1   p     258.987909      1.000000
    1   p     118.734033      1.000000
    1   p      55.506313      1.000000
    1   p      26.407305      1.000000
    1   p      12.758945      1.000000
    1   p       6.246898      1.000000
    1   p       3.092313      1.000000
    1   p       1.544004      1.000000
    1   p       0.775727      1.000000
    1   p       0.391197      1.000000
    1   p       0.197526      1.000000

    1   d     826.570903      0.261853
    1   d     298.354501      0.965108

    1   d     133.246635      1.000000
    1   d      63.670862      1.000000
    1   d      29.183415      1.000000
    1   d      13.061102      1.000000
    1   d       6.429000      1.000000
    1   d       3.105967      1.000000
    1   d       1.519500      1.000000
    1   d       0.750743      1.000000
    1   d       0.373568      1.000000
    1   d       0.186686      1.000000
    1   d       0.093428      1.000000

    1   f     313.252570      0.226938
    1   f     120.080711      0.973909

    1   f      55.096696      1.000000
    1   f      27.041382      1.000000
    1   f      13.017646      1.000000
    1   f       6.280999      1.000000
    1   f       2.880246      1.000000
    1   f       1.385371      1.000000
    1   f       0.737292      1.000000
    1   f       0.364923      1.000000

    1   g     112.137412      0.197560
    1   g      42.959550      0.980291

    1   g      18.858800      1.000000
    1   g       8.579437      1.000000
    1   g       3.927493      1.000000
    1   g       1.624022      1.000000
    1   g       0.761551      1.000000

    1   h       9.434703      1.000000
    1   h       3.144901      1.000000
    1   h       1.048300      1.000000

    2   s   18095.306651      0.145063
    2   s    8408.841805      0.057914
    2   s    4014.768514      0.412299
    2   s    1967.734255      0.482317

    2   s     989.106218      1.000000
    2   s     509.376962      1.000000
    2   s     268.450697      1.000000
    2   s     144.606194      1.000000
    2   s      79.512228      1.000000
    2   s      44.564896      1.000000
    2   s      25.422121      1.000000
    2   s      14.736716      1.000000
    2   s       8.666305      1.000000
    2   s       5.161222      1.000000
    2   s       3.107187      1.000000
    2   s       1.887394      1.000000
    2   s       1.154516      1.000000
    2   s       0.709780      1.000000
    2   s       0.437688      1.000000
    2   s       0.270175      1.000000

    2   p    3076.100366      0.165169
    2   p    1316.038916      0.368721

    2   p     577.112256      1.000000
    2   p     258.987909      1.000000
    2   p     118.734033      1.000000
    2   p      55.506313      1.000000
    2   p      26.407305      1.000000
    2   p      12.758945      1.000000
    2   p       6.246898      1.000000
    2   p       3.092313      1.000000
    2   p       1.544004      1.000000
    2   p       0.775727      1.000000
    2   p       0.391197      1.000000
    2   p       0.197526      1.000000

    2   d     826.570903      0.261853
    2   d     298.354501      0.965108

    2   d     133.246635      1.000000
    2   d      63.670862      1.000000
    2   d      29.183415      1.000000
    2   d      13.061102      1.000000
    2   d       6.429000      1.000000
    2   d       3.105967      1.000000
    2   d       1.519500      1.000000
    2   d       0.750743      1.000000
    2   d       0.373568      1.000000
    2   d       0.186686      1.000000
    2   d       0.093428      1.000000

    2   f     313.252570      0.226938
    2   f     120.080711      0.973909

    2   f      55.096696      1.000000
    2   f      27.041382      1.000000
    2   f      13.017646      1.000000
    2   f       6.280999      1.000000
    2   f       2.880246      1.000000
    2   f       1.385371      1.000000
    2   f       0.737292      1.000000
    2   f       0.364923      1.000000

    2   g     112.137412      0.197560
    2   g      42.959550      0.980291

    2   g      18.858800      1.000000
    2   g       8.579437      1.000000
    2   g       3.927493      1.000000
    2   g       1.624022      1.000000
    2   g       0.761551      1.000000

    2   h       9.434703      1.000000
    2   h       3.144901      1.000000
    2   h       1.048300      1.000000
 =======================================


 PROGRAM * MP2 (Closed-shell)     Authors: C. Hampel, H.-J. Werner, 1991, M. Deegan, P.J. Knowles, 1992

                                   MP2-F12 implementation by H.-J. Werner, 2007

                   Density fitting integral evaluation by F.R. Manby, 2003,2007, G. Knizia, 2010



 Convergence thresholds:  THRVAR = 1.00D-08  THRDEN = 1.00D-09

 Number of core orbitals:          18 (  18 )
 Number of closed-shell orbitals:   7 (   7 )
 Number of external orbitals:     185 ( 185 )

 Molecular orbitals read from record     2100.2  Type=RHF/CANONICAL  

 MP2-F12 correlation treatment (H.-J. Werner, 2006)
 ==================================================

 Some Fock operators are calculated for F12-singles only.

 AO(A)-basis ORBITAL           loaded. Number of functions:     210
 RI(R)-basis RI                loaded. Number of functions:     532
 Basis set JK loaded. Number of basis functions: 532 
 DF-basis JK                   loaded. Number of functions:     532

 Screening thresholds:   THRAO=  1.00D-10  THRMO=  1.00D-09  THRPROD=  1.00D-09
                         THRSW=  1.00D-05  THROV=  1.00D-12  THRAOF12= 1.00D-08

 CPU time for Fock operators                      1.18 sec

 Construction of ABS:
 Smallest eigenvalue of S          2.26E-06  (threshold= 1.00E-09)
 Ratio eigmin/eigmax               2.98E-07  (threshold= 1.00E-09)
 Smallest eigenvalue of S kept     2.26E-06  (threshold= 2.26E-06, 0 functions deleted, 532 kept)

 Construction of CABS:
 Smallest eigenvalue of S          5.76E-12  (threshold= 1.00E-09)
 Ratio eigmin/eigmax               5.76E-12  (threshold= 1.00E-09)
 Smallest eigenvalue of S kept     6.22E-09  (threshold= 6.22E-09, 4 functions deleted, 528 kept)

 CPU time for CABS singles                        0.11 sec

 CABS-singles contribution of  -0.00010054 patched into reference energy.
 New reference energy        -831.01111507

 Leaving lmp2-f12 by request (CABS_SINGLES < 0) after calculation of singles.


  Reference energy                   -831.011014526583
  F12 singles correction               -0.000100542429

 F12 singles corrections added to reference energy

  New reference energy               -831.011115069012

  F12 singlet correction                0.000000000000
  F12 triplet correction                0.000000000000
  F12 total correction                  0.000000000000
  MP2-F12 singlet pair energy           0.000000000000
  MP2-F12 triplet pair energy           0.000000000000
  MP2-F12 correlation energy            0.000000000000

 !MP2-F12 total energy               -831.011115069012


 **********************************************************************************************************************************
 DATASETS  * FILE   NREC   LENGTH (MB)   RECORD NAMES
              1      19       30.87       500      610      700      900      950      970     1000      129      960     1100   
                                          VAR    BASINP    GEOM    SYMINP    ZMAT    AOBASIS   BASIS     P2S    ABASIS      S 
                                         1400     1410     1420     1200     1210     1080     1700     1600     1650   
                                           T        V       ECP      H0       H01     AOSYM    OPER      SMH    MOLCAS    

              2       5        1.61       700     1000      520     2100     7360   
                                         GEOM     BASIS   MCVARS     RHF    F12ABS    

 PROGRAMS   *        TOTAL   DF-CABS     DF-HF       INT
 CPU TIMES  *         2.81      1.44      0.80      0.42
 REAL TIME  *         4.65 SEC
 DISK USED  *        35.08 MB (local),      561.26 MB (total)
 SF USED    *       319.53 MB
 GA USED    *         3.05 MB       (max)       0.00 MB       (current)
 **********************************************************************************************************************************

 DF-CABS/cc-pVQZ-PP-F12 energy=   -831.011115069012

         DF-CABS           DF-HF
   -831.01111507   -831.01101453
 **********************************************************************************************************************************
 Molpro calculation terminated
