
 Working directory              : /scratch/emmanous/3821784.pbs01/molpro.c4rm7GFyld/
 Global scratch directory       : /scratch/emmanous/3821784.pbs01/molpro.c4rm7GFyld/
 Wavefunction directory         : /home/emmanous/wfu/
 Main file repository           : /scratch/emmanous/3821784.pbs01/molpro.c4rm7GFyld/

 id        : wis

 Nodes     nprocs
 cff054      16
 GA implementation: MPI file
 GA implementation (serial work in mppx): MPI file

 Using DEFAULT tuning parameter for ncache   :   16384
 Using DEFAULT tuning parameter for mflopdgm :   10000
 Using DEFAULT tuning parameter for mflopdgv :    4000
 Using DEFAULT tuning parameter for mflopmxm :    5000
 Using DEFAULT tuning parameter for mflopmxv :    4000
 Using DEFAULT tuning parameter for mindgm   :       1
 Using DEFAULT tuning parameter for mindgc   :       4
 Using DEFAULT tuning parameter for mindgf   :    5000
 Using DEFAULT tuning parameter for mindgl   :       4
 Using DEFAULT tuning parameter for mindgr   :       1
 Using DEFAULT tuning parameter for mindgv   :      20
 Using DEFAULT tuning parameter for mincuda  :     500
 Using DEFAULT tuning parameter for mxmblk   :      64
 Using DEFAULT tuning parameter for mxmbln   :      64
 Using DEFAULT tuning parameter for nroll    :       2
 Using custom tuning parameter for ngpus     :       0
 Using customized tuning parameters: mindgm=1; mindgv=20; mindgc=4; mindgr=1; noblas=0; minvec=7

 Fortran compiler: integer size=8, double size=8, logical size=8
 default implementation of scratch files=sf  


 Variables initialized (1025), CPU time= 0.01 sec
 gprint,basis
 gthresh,energy=1d-9
 ANGSTROM
 geomtyp=xyz
 charge=0
 multiplicity=1
 nosym
 geom={
 Br ,0.0000 ,0.0000 ,1.1405
 Br ,0.0000 ,0.0000 ,-1.1405
 }
 
 basis={
 default,cc-pVTZ-PP-F12
 set,df
 default,cc-pVTZ-PP-F12/MP2Fit
 set,jk
 default,cc-pVTZ-PP-F12/JKFIT
 set,ri
 default,def2-QZVPP/JKFit
 }
 {df-hf,df_basis=jk
 wf,,,$multiplicity-1
 print,orbitals
 maxit,300}
 {df-cabs,gem_beta=1.0,df_basis=df,df_basis_exch=jk,ri_basis=ri,thrcabs=1d-9,thrcabs_rel=1d-9;explicit,ignore_bad_singl=1}
 Commands initialized (840), CPU time= 0.01 sec, 684 directives.
 Default parameters read. Elapsed time= 0.07 sec

 Using DEFAULT tuning parameter for mpplat   :       3
 Using DEFAULT tuning parameter for mppspeed :    1600
 Checking input...
 Passed
1


                                         ***  PROGRAM SYSTEM MOLPRO  ***
                                       Copyright, TTI GmbH Stuttgart, 2015
                                    Version 2022.3 linked Wed Nov 30 13:40:34 2022


 **********************************************************************************************************************************
 LABEL *                                                                                 
  64 bit mpp version                                                                     DATE: 13-Jul-23          TIME: 11:21:14  
 **********************************************************************************************************************************

 SHA1:             e31ec9a5ea85254ab76f59d122cbdd51c71cf98b
 **********************************************************************************************************************************

 Memory per process:      1000 MW
 Total memory per node:  16000 MW

 GA preallocation disabled
 GA check disabled

 Variable memory set to 1000.0 MW



 THRESHOLDS:

 ZERO    =  1.00D-12  ONEINT  =  1.00D-12  TWOINT  =  1.00D-11  PREFAC  =  1.00D-14  XXXXXX  =  1.00D-09  EORDER  =  1.00D-04
 ENERGY  =  1.00D-09  ETEST   =  0.00D+00  EDENS   =  0.00D+00  THRDEDEF=  1.00D-06  GRADIENT=  1.00D-05  STEP    =  1.00D-03
 ORBITAL =  1.00D-05  CIVEC   =  1.00D-05  COEFF   =  1.00D-04  PRINTCI =  5.00D-02  PUNCHCI =  9.90D+01  OPTGRAD =  3.00D-04
 OPTENERG=  1.00D-06  OPTSTEP =  3.00D-04  THRGRAD =  1.00D-10  COMPRESS=  1.00D-11  VARMIN  =  1.00D-07  VARMAX  =  1.00D-03
 THRDOUB =  0.00D+00  THRDIV  =  1.00D-05  THRRED  =  1.00D-07  THRPSP  =  1.00D+00  THRDC   =  1.00D-10  THRCS   =  1.00D-10
 THRNRM  =  1.00D-08  THREQ   =  0.00D+00  THRDE   =  1.00D+00  THRREF  =  1.00D-05  SPARFAC =  1.00D+00  THRDLP  =  1.00D-07
 THRDIA  =  1.00D-10  THRDLS  =  1.00D-07  THRGPS  =  0.00D+00  THRKEX  =  0.00D+00  THRDIS  =  2.00D-01  THRVAR  =  1.00D-10
 THRLOC  =  1.00D-06  THRGAP  =  1.00D-06  THRLOCT = -1.00D+00  THRGAPT = -1.00D+00  THRORB  =  1.00D-06  THRMLTP =  0.00D+00
 THRCPQCI=  1.00D-10  KEXTA   =  0.00D+00  THRCOARS=  0.00D+00  SYMTOL  =  1.00D-06  GRADTOL =  1.00D-06  THROVL  =  1.00D-08
 THRORTH =  1.00D-08  THRDLOVL= -1.00D+00  GRID    =  1.00D-06  GRIDMAX =  1.00D-03  DTMAX   =  0.00D+00  THROCCDE=  1.00D-01
 THROCCDE=  1.00D-01  THRPRINT=  2.50D-01

 SETTING GEOMTYP        =    XYZ
 SETTING CHARGE         =      0.0000000D+00                                  
 SETTING MULTIPLICITY   =         1.00000000                                  
 ZSYMEL=NOSYM
 ZUNIT=ANG

 SETTING BASIS          =    CC-PVTZ-PP-F12


 Recomputing integrals since basis changed


 Using spherical harmonics

 Library entry Br   ECP ECP10MDF                 selected for group  1
 Library entry BR     S cc-pVTZ-PP-F12       selected for orbital group  1
 Library entry BR     P cc-pVTZ-PP-F12       selected for orbital group  1
 Library entry BR     D cc-pVTZ-PP-F12       selected for orbital group  1
 Library entry BR     F cc-pVTZ-PP-F12       selected for orbital group  1


 PROGRAM * SEWARD (Integral evaluation for generally contracted gaussian basis sets)     Author: Roland Lindh, 1990

 Geometry written to block  1 of record 700


 Point group  C1  



 ATOMIC COORDINATES

 NR  ATOM    CHARGE       X              Y              Z

   1  BR     25.00    0.000000000    0.000000000    2.155232645
   2  BR     25.00    0.000000000    0.000000000   -2.155232645

 Bond lengths in Bohr (Angstrom)

 1-2  4.310465290
     ( 2.281000000)


          BR  CORE POTENTIAL

          g POTENTIAL

 POWERS             2
 EXPONENTIALS   1.000000    
 COEFFICIENTS   0.000000    

          s - g POTENTIAL

 POWERS             2              2              2
 EXPONENTIALS   70.02426       31.17841       7.156593    
 COEFFICIENTS   49.96283       370.0142       10.24144    

          p - g POTENTIAL

 POWERS             2              2              2              2
 EXPONENTIALS   46.77347       46.18412       21.71386       20.94179    
 COEFFICIENTS   99.11224       198.2530       28.26174       56.62337    

          d - g POTENTIAL

 POWERS             2              2              2              2              2              2
 EXPONENTIALS   50.69884       50.64476       15.44751       15.50026       2.800391       1.077480    
 COEFFICIENTS  -18.60585      -27.92328     -0.3796930     -0.7805830      3.5968000E-02  9.4397000E-02

          f - g POTENTIAL

 POWERS             2              2
 EXPONENTIALS   14.46561       21.23407    
 COEFFICIENTS  -1.091269      -2.887691    


          BR  SPIN-ORBIT POTENTIAL

          p POTENTIAL

 POWERS             2              2              2              2
 EXPONENTIALS   46.77347       46.18412       21.71386       20.94179    
 COEFFICIENTS  -198.2245       198.2530      -56.52348       56.62337    

          d POTENTIAL

 POWERS             2              2              2              2              2              2
 EXPONENTIALS   50.69884       50.64476       15.44751       15.50026       2.800391       1.077480    
 COEFFICIENTS   18.60585      -18.61552      0.3796930     -0.5203890     -3.5968000E-02  6.2931000E-02

          f POTENTIAL

 POWERS             2              2
 EXPONENTIALS   14.46561       21.23407    
 COEFFICIENTS  0.7275130      -1.443846    


          BR  CORE POTENTIAL

          g POTENTIAL

 POWERS             2
 EXPONENTIALS   1.000000    
 COEFFICIENTS   0.000000    

          s - g POTENTIAL

 POWERS             2              2              2
 EXPONENTIALS   70.02426       31.17841       7.156593    
 COEFFICIENTS   49.96283       370.0142       10.24144    

          p - g POTENTIAL

 POWERS             2              2              2              2
 EXPONENTIALS   46.77347       46.18412       21.71386       20.94179    
 COEFFICIENTS   99.11224       198.2530       28.26174       56.62337    

          d - g POTENTIAL

 POWERS             2              2              2              2              2              2
 EXPONENTIALS   50.69884       50.64476       15.44751       15.50026       2.800391       1.077480    
 COEFFICIENTS  -18.60585      -27.92328     -0.3796930     -0.7805830      3.5968000E-02  9.4397000E-02

          f - g POTENTIAL

 POWERS             2              2
 EXPONENTIALS   14.46561       21.23407    
 COEFFICIENTS  -1.091269      -2.887691    


          BR  SPIN-ORBIT POTENTIAL

          p POTENTIAL

 POWERS             2              2              2              2
 EXPONENTIALS   46.77347       46.18412       21.71386       20.94179    
 COEFFICIENTS  -198.2245       198.2530      -56.52348       56.62337    

          d POTENTIAL

 POWERS             2              2              2              2              2              2
 EXPONENTIALS   50.69884       50.64476       15.44751       15.50026       2.800391       1.077480    
 COEFFICIENTS   18.60585      -18.61552      0.3796930     -0.5203890     -3.5968000E-02  6.2931000E-02

          f POTENTIAL

 POWERS             2              2
 EXPONENTIALS   14.46561       21.23407    
 COEFFICIENTS  0.7275130      -1.443846    


 BASIS DATA

   Nr Sym  Nuc  Type         Exponents   Contraction coefficients

    1.1 A     1  1s       78967.500000     0.000028   -0.000011    0.000000    0.000000    0.000000    0.000000
    2.1 A                 11809.700000     0.000214   -0.000086    0.000000    0.000000    0.000000    0.000000
    3.1 A                  2687.140000     0.001056   -0.000435    0.000000    0.000000    0.000000    0.000000
    4.1 A                   760.036000     0.003688   -0.001457    0.000000    0.000000    0.000000    0.000000
    5.1 A                   241.811000     0.007934   -0.003381    0.000000    0.000000    0.000000    0.000000
    6.1 A                    38.491400     0.152868   -0.057658    0.000000    0.000000    0.000000    0.000000
                             24.058600    -0.278602    0.112325    0.000000    0.000000    0.000000    0.000000
                             14.358700    -0.218850    0.075673    0.000000    0.000000    0.000000    0.000000
                              4.377370     0.496005   -0.224920    0.000000    0.000000    0.000000    0.000000
                              2.351820     0.552341   -0.406738    0.000000    0.000000    0.000000    0.000000
                              1.251050     0.170227   -0.144328    1.000000    0.000000    0.000000    0.000000
                              0.529468     0.008025    0.499984    0.000000    1.000000    0.000000    0.000000
                              0.241896    -0.000015    0.608204    0.000000    0.000000    1.000000    0.000000
                              0.106486     0.000255    0.166259    0.000000    0.000000    0.000000    1.000000
    7.1 A     1  1s           0.040700     1.000000
    8.1 A     1  2px        503.632000     0.000464
                             93.002300     0.005456
                             42.510000    -0.001307
                             26.577800    -0.088724
                              7.580970     0.300146
                              3.858870     0.472200
                              1.943090     0.298291
                              0.924209     0.053777
                              0.417733     0.001157
                              0.180853     0.001164
                              0.075154     0.000026
    9.1 A     1  2py        503.632000     0.000464
                             93.002300     0.005456
                             42.510000    -0.001307
                             26.577800    -0.088724
                              7.580970     0.300146
                              3.858870     0.472200
                              1.943090     0.298291
                              0.924209     0.053777
                              0.417733     0.001157
                              0.180853     0.001164
                              0.075154     0.000026
   10.1 A     1  2pz        503.632000     0.000464
                             93.002300     0.005456
                             42.510000    -0.001307
                             26.577800    -0.088724
                              7.580970     0.300146
                              3.858870     0.472200
                              1.943090     0.298291
                              0.924209     0.053777
                              0.417733     0.001157
                              0.180853     0.001164
                              0.075154     0.000026
   11.1 A     1  2px        503.632000    -0.000129
                             93.002300    -0.001747
                             42.510000     0.001862
                             26.577800     0.023451
                              7.580970    -0.098999
                              3.858870    -0.157799
                              1.943090    -0.123260
                              0.924209     0.153835
                              0.417733     0.448984
                              0.180853     0.438859
                              0.075154     0.147148
   12.1 A     1  2py        503.632000    -0.000129
                             93.002300    -0.001747
                             42.510000     0.001862
                             26.577800     0.023451
                              7.580970    -0.098999
                              3.858870    -0.157799
                              1.943090    -0.123260
                              0.924209     0.153835
                              0.417733     0.448984
                              0.180853     0.438859
                              0.075154     0.147148
   13.1 A     1  2pz        503.632000    -0.000129
                             93.002300    -0.001747
                             42.510000     0.001862
                             26.577800     0.023451
                              7.580970    -0.098999
                              3.858870    -0.157799
                              1.943090    -0.123260
                              0.924209     0.153835
                              0.417733     0.448984
                              0.180853     0.438859
                              0.075154     0.147148
   14.1 A     1  2px        503.632000     0.000000
                             93.002300     0.000000
                             42.510000     0.000000
                             26.577800     0.000000
                              7.580970     0.000000
                              3.858870     0.000000
                              1.943090     0.000000
                              0.924209     0.000000
                              0.417733     1.000000
                              0.180853     0.000000
                              0.075154     0.000000
   15.1 A     1  2py        503.632000     0.000000
                             93.002300     0.000000
                             42.510000     0.000000
                             26.577800     0.000000
                              7.580970     0.000000
                              3.858870     0.000000
                              1.943090     0.000000
                              0.924209     0.000000
                              0.417733     1.000000
                              0.180853     0.000000
                              0.075154     0.000000
   16.1 A     1  2pz        503.632000     0.000000
                             93.002300     0.000000
                             42.510000     0.000000
                             26.577800     0.000000
                              7.580970     0.000000
                              3.858870     0.000000
                              1.943090     0.000000
                              0.924209     0.000000
                              0.417733     1.000000
                              0.180853     0.000000
                              0.075154     0.000000
   17.1 A     1  2px        503.632000     0.000000
                             93.002300     0.000000
                             42.510000     0.000000
                             26.577800     0.000000
                              7.580970     0.000000
                              3.858870     0.000000
                              1.943090     0.000000
                              0.924209     0.000000
                              0.417733     0.000000
                              0.180853     1.000000
                              0.075154     0.000000
   18.1 A     1  2py        503.632000     0.000000
                             93.002300     0.000000
                             42.510000     0.000000
                             26.577800     0.000000
                              7.580970     0.000000
                              3.858870     0.000000
                              1.943090     0.000000
                              0.924209     0.000000
                              0.417733     0.000000
                              0.180853     1.000000
                              0.075154     0.000000
   19.1 A     1  2pz        503.632000     0.000000
                             93.002300     0.000000
                             42.510000     0.000000
                             26.577800     0.000000
                              7.580970     0.000000
                              3.858870     0.000000
                              1.943090     0.000000
                              0.924209     0.000000
                              0.417733     0.000000
                              0.180853     1.000000
                              0.075154     0.000000
   20.1 A     1  2px        503.632000     0.000000
                             93.002300     0.000000
                             42.510000     0.000000
                             26.577800     0.000000
                              7.580970     0.000000
                              3.858870     0.000000
                              1.943090     0.000000
                              0.924209     0.000000
                              0.417733     0.000000
                              0.180853     0.000000
                              0.075154     1.000000
   21.1 A     1  2py        503.632000     0.000000
                             93.002300     0.000000
                             42.510000     0.000000
                             26.577800     0.000000
                              7.580970     0.000000
                              3.858870     0.000000
                              1.943090     0.000000
                              0.924209     0.000000
                              0.417733     0.000000
                              0.180853     0.000000
                              0.075154     1.000000
   22.1 A     1  2pz        503.632000     0.000000
                             93.002300     0.000000
                             42.510000     0.000000
                             26.577800     0.000000
                              7.580970     0.000000
                              3.858870     0.000000
                              1.943090     0.000000
                              0.924209     0.000000
                              0.417733     0.000000
                              0.180853     0.000000
                              0.075154     1.000000
   23.1 A     1  2px          0.029500     1.000000
   24.1 A     1  2py          0.029500     1.000000
   25.1 A     1  2pz          0.029500     1.000000
   26.1 A     1  3d0       1097.720000     0.000111
                            332.929000     0.001153
                            130.800000     0.007690
                             60.127100     0.035715
                             29.743000     0.093032
                             15.038100     0.188566
                              7.731320     0.283543
                              3.961930     0.317911
                              2.004490     0.248149
                              0.973276     0.108184
                              0.414678     0.016641
   27.1 A     1  3d2-      1097.720000     0.000111
                            332.929000     0.001153
                            130.800000     0.007690
                             60.127100     0.035715
                             29.743000     0.093032
                             15.038100     0.188566
                              7.731320     0.283543
                              3.961930     0.317911
                              2.004490     0.248149
                              0.973276     0.108184
                              0.414678     0.016641
   28.1 A     1  3d1+      1097.720000     0.000111
                            332.929000     0.001153
                            130.800000     0.007690
                             60.127100     0.035715
                             29.743000     0.093032
                             15.038100     0.188566
                              7.731320     0.283543
                              3.961930     0.317911
                              2.004490     0.248149
                              0.973276     0.108184
                              0.414678     0.016641
   29.1 A     1  3d2+      1097.720000     0.000111
                            332.929000     0.001153
                            130.800000     0.007690
                             60.127100     0.035715
                             29.743000     0.093032
                             15.038100     0.188566
                              7.731320     0.283543
                              3.961930     0.317911
                              2.004490     0.248149
                              0.973276     0.108184
                              0.414678     0.016641
   30.1 A     1  3d1-      1097.720000     0.000111
                            332.929000     0.001153
                            130.800000     0.007690
                             60.127100     0.035715
                             29.743000     0.093032
                             15.038100     0.188566
                              7.731320     0.283543
                              3.961930     0.317911
                              2.004490     0.248149
                              0.973276     0.108184
                              0.414678     0.016641
   31.1 A     1  3d0          2.375800     1.000000
   32.1 A     1  3d2-         2.375800     1.000000
   33.1 A     1  3d1+         2.375800     1.000000
   34.1 A     1  3d2+         2.375800     1.000000
   35.1 A     1  3d1-         2.375800     1.000000
   36.1 A     1  3d0          0.614500     1.000000
   37.1 A     1  3d2-         0.614500     1.000000
   38.1 A     1  3d1+         0.614500     1.000000
   39.1 A     1  3d2+         0.614500     1.000000
   40.1 A     1  3d1-         0.614500     1.000000
   41.1 A     1  3d0          0.295400     1.000000
   42.1 A     1  3d2-         0.295400     1.000000
   43.1 A     1  3d1+         0.295400     1.000000
   44.1 A     1  3d2+         0.295400     1.000000
   45.1 A     1  3d1-         0.295400     1.000000
   46.1 A     1  3d0          0.142000     1.000000
   47.1 A     1  3d2-         0.142000     1.000000
   48.1 A     1  3d1+         0.142000     1.000000
   49.1 A     1  3d2+         0.142000     1.000000
   50.1 A     1  3d1-         0.142000     1.000000
   51.1 A     1  4f1+         2.776100     1.000000
   52.1 A     1  4f1-         2.776100     1.000000
   53.1 A     1  4f0          2.776100     1.000000
   54.1 A     1  4f3+         2.776100     1.000000
   55.1 A     1  4f2-         2.776100     1.000000
   56.1 A     1  4f3-         2.776100     1.000000
   57.1 A     1  4f2+         2.776100     1.000000
   58.1 A     1  4f1+         0.599500     1.000000
   59.1 A     1  4f1-         0.599500     1.000000
   60.1 A     1  4f0          0.599500     1.000000
   61.1 A     1  4f3+         0.599500     1.000000
   62.1 A     1  4f2-         0.599500     1.000000
   63.1 A     1  4f3-         0.599500     1.000000
   64.1 A     1  4f2+         0.599500     1.000000
   65.1 A     1  4f1+         0.242400     1.000000
   66.1 A     1  4f1-         0.242400     1.000000
   67.1 A     1  4f0          0.242400     1.000000
   68.1 A     1  4f3+         0.242400     1.000000
   69.1 A     1  4f2-         0.242400     1.000000
   70.1 A     1  4f3-         0.242400     1.000000
   71.1 A     1  4f2+         0.242400     1.000000
   72.1 A     2  1s       78967.500000     0.000028   -0.000011    0.000000    0.000000    0.000000    0.000000
   73.1 A                 11809.700000     0.000214   -0.000086    0.000000    0.000000    0.000000    0.000000
   74.1 A                  2687.140000     0.001056   -0.000435    0.000000    0.000000    0.000000    0.000000
   75.1 A                   760.036000     0.003688   -0.001457    0.000000    0.000000    0.000000    0.000000
   76.1 A                   241.811000     0.007934   -0.003381    0.000000    0.000000    0.000000    0.000000
   77.1 A                    38.491400     0.152868   -0.057658    0.000000    0.000000    0.000000    0.000000
                             24.058600    -0.278602    0.112325    0.000000    0.000000    0.000000    0.000000
                             14.358700    -0.218850    0.075673    0.000000    0.000000    0.000000    0.000000
                              4.377370     0.496005   -0.224920    0.000000    0.000000    0.000000    0.000000
                              2.351820     0.552341   -0.406738    0.000000    0.000000    0.000000    0.000000
                              1.251050     0.170227   -0.144328    1.000000    0.000000    0.000000    0.000000
                              0.529468     0.008025    0.499984    0.000000    1.000000    0.000000    0.000000
                              0.241896    -0.000015    0.608204    0.000000    0.000000    1.000000    0.000000
                              0.106486     0.000255    0.166259    0.000000    0.000000    0.000000    1.000000
   78.1 A     2  1s           0.040700     1.000000
   79.1 A     2  2px        503.632000     0.000464
                             93.002300     0.005456
                             42.510000    -0.001307
                             26.577800    -0.088724
                              7.580970     0.300146
                              3.858870     0.472200
                              1.943090     0.298291
                              0.924209     0.053777
                              0.417733     0.001157
                              0.180853     0.001164
                              0.075154     0.000026
   80.1 A     2  2py        503.632000     0.000464
                             93.002300     0.005456
                             42.510000    -0.001307
                             26.577800    -0.088724
                              7.580970     0.300146
                              3.858870     0.472200
                              1.943090     0.298291
                              0.924209     0.053777
                              0.417733     0.001157
                              0.180853     0.001164
                              0.075154     0.000026
   81.1 A     2  2pz        503.632000     0.000464
                             93.002300     0.005456
                             42.510000    -0.001307
                             26.577800    -0.088724
                              7.580970     0.300146
                              3.858870     0.472200
                              1.943090     0.298291
                              0.924209     0.053777
                              0.417733     0.001157
                              0.180853     0.001164
                              0.075154     0.000026
   82.1 A     2  2px        503.632000    -0.000129
                             93.002300    -0.001747
                             42.510000     0.001862
                             26.577800     0.023451
                              7.580970    -0.098999
                              3.858870    -0.157799
                              1.943090    -0.123260
                              0.924209     0.153835
                              0.417733     0.448984
                              0.180853     0.438859
                              0.075154     0.147148
   83.1 A     2  2py        503.632000    -0.000129
                             93.002300    -0.001747
                             42.510000     0.001862
                             26.577800     0.023451
                              7.580970    -0.098999
                              3.858870    -0.157799
                              1.943090    -0.123260
                              0.924209     0.153835
                              0.417733     0.448984
                              0.180853     0.438859
                              0.075154     0.147148
   84.1 A     2  2pz        503.632000    -0.000129
                             93.002300    -0.001747
                             42.510000     0.001862
                             26.577800     0.023451
                              7.580970    -0.098999
                              3.858870    -0.157799
                              1.943090    -0.123260
                              0.924209     0.153835
                              0.417733     0.448984
                              0.180853     0.438859
                              0.075154     0.147148
   85.1 A     2  2px        503.632000     0.000000
                             93.002300     0.000000
                             42.510000     0.000000
                             26.577800     0.000000
                              7.580970     0.000000
                              3.858870     0.000000
                              1.943090     0.000000
                              0.924209     0.000000
                              0.417733     1.000000
                              0.180853     0.000000
                              0.075154     0.000000
   86.1 A     2  2py        503.632000     0.000000
                             93.002300     0.000000
                             42.510000     0.000000
                             26.577800     0.000000
                              7.580970     0.000000
                              3.858870     0.000000
                              1.943090     0.000000
                              0.924209     0.000000
                              0.417733     1.000000
                              0.180853     0.000000
                              0.075154     0.000000
   87.1 A     2  2pz        503.632000     0.000000
                             93.002300     0.000000
                             42.510000     0.000000
                             26.577800     0.000000
                              7.580970     0.000000
                              3.858870     0.000000
                              1.943090     0.000000
                              0.924209     0.000000
                              0.417733     1.000000
                              0.180853     0.000000
                              0.075154     0.000000
   88.1 A     2  2px        503.632000     0.000000
                             93.002300     0.000000
                             42.510000     0.000000
                             26.577800     0.000000
                              7.580970     0.000000
                              3.858870     0.000000
                              1.943090     0.000000
                              0.924209     0.000000
                              0.417733     0.000000
                              0.180853     1.000000
                              0.075154     0.000000
   89.1 A     2  2py        503.632000     0.000000
                             93.002300     0.000000
                             42.510000     0.000000
                             26.577800     0.000000
                              7.580970     0.000000
                              3.858870     0.000000
                              1.943090     0.000000
                              0.924209     0.000000
                              0.417733     0.000000
                              0.180853     1.000000
                              0.075154     0.000000
   90.1 A     2  2pz        503.632000     0.000000
                             93.002300     0.000000
                             42.510000     0.000000
                             26.577800     0.000000
                              7.580970     0.000000
                              3.858870     0.000000
                              1.943090     0.000000
                              0.924209     0.000000
                              0.417733     0.000000
                              0.180853     1.000000
                              0.075154     0.000000
   91.1 A     2  2px        503.632000     0.000000
                             93.002300     0.000000
                             42.510000     0.000000
                             26.577800     0.000000
                              7.580970     0.000000
                              3.858870     0.000000
                              1.943090     0.000000
                              0.924209     0.000000
                              0.417733     0.000000
                              0.180853     0.000000
                              0.075154     1.000000
   92.1 A     2  2py        503.632000     0.000000
                             93.002300     0.000000
                             42.510000     0.000000
                             26.577800     0.000000
                              7.580970     0.000000
                              3.858870     0.000000
                              1.943090     0.000000
                              0.924209     0.000000
                              0.417733     0.000000
                              0.180853     0.000000
                              0.075154     1.000000
   93.1 A     2  2pz        503.632000     0.000000
                             93.002300     0.000000
                             42.510000     0.000000
                             26.577800     0.000000
                              7.580970     0.000000
                              3.858870     0.000000
                              1.943090     0.000000
                              0.924209     0.000000
                              0.417733     0.000000
                              0.180853     0.000000
                              0.075154     1.000000
   94.1 A     2  2px          0.029500     1.000000
   95.1 A     2  2py          0.029500     1.000000
   96.1 A     2  2pz          0.029500     1.000000
   97.1 A     2  3d0       1097.720000     0.000111
                            332.929000     0.001153
                            130.800000     0.007690
                             60.127100     0.035715
                             29.743000     0.093032
                             15.038100     0.188566
                              7.731320     0.283543
                              3.961930     0.317911
                              2.004490     0.248149
                              0.973276     0.108184
                              0.414678     0.016641
   98.1 A     2  3d2-      1097.720000     0.000111
                            332.929000     0.001153
                            130.800000     0.007690
                             60.127100     0.035715
                             29.743000     0.093032
                             15.038100     0.188566
                              7.731320     0.283543
                              3.961930     0.317911
                              2.004490     0.248149
                              0.973276     0.108184
                              0.414678     0.016641
   99.1 A     2  3d1+      1097.720000     0.000111
                            332.929000     0.001153
                            130.800000     0.007690
                             60.127100     0.035715
                             29.743000     0.093032
                             15.038100     0.188566
                              7.731320     0.283543
                              3.961930     0.317911
                              2.004490     0.248149
                              0.973276     0.108184
                              0.414678     0.016641
  100.1 A     2  3d2+      1097.720000     0.000111
                            332.929000     0.001153
                            130.800000     0.007690
                             60.127100     0.035715
                             29.743000     0.093032
                             15.038100     0.188566
                              7.731320     0.283543
                              3.961930     0.317911
                              2.004490     0.248149
                              0.973276     0.108184
                              0.414678     0.016641
  101.1 A     2  3d1-      1097.720000     0.000111
                            332.929000     0.001153
                            130.800000     0.007690
                             60.127100     0.035715
                             29.743000     0.093032
                             15.038100     0.188566
                              7.731320     0.283543
                              3.961930     0.317911
                              2.004490     0.248149
                              0.973276     0.108184
                              0.414678     0.016641
  102.1 A     2  3d0          2.375800     1.000000
  103.1 A     2  3d2-         2.375800     1.000000
  104.1 A     2  3d1+         2.375800     1.000000
  105.1 A     2  3d2+         2.375800     1.000000
  106.1 A     2  3d1-         2.375800     1.000000
  107.1 A     2  3d0          0.614500     1.000000
  108.1 A     2  3d2-         0.614500     1.000000
  109.1 A     2  3d1+         0.614500     1.000000
  110.1 A     2  3d2+         0.614500     1.000000
  111.1 A     2  3d1-         0.614500     1.000000
  112.1 A     2  3d0          0.295400     1.000000
  113.1 A     2  3d2-         0.295400     1.000000
  114.1 A     2  3d1+         0.295400     1.000000
  115.1 A     2  3d2+         0.295400     1.000000
  116.1 A     2  3d1-         0.295400     1.000000
  117.1 A     2  3d0          0.142000     1.000000
  118.1 A     2  3d2-         0.142000     1.000000
  119.1 A     2  3d1+         0.142000     1.000000
  120.1 A     2  3d2+         0.142000     1.000000
  121.1 A     2  3d1-         0.142000     1.000000
  122.1 A     2  4f1+         2.776100     1.000000
  123.1 A     2  4f1-         2.776100     1.000000
  124.1 A     2  4f0          2.776100     1.000000
  125.1 A     2  4f3+         2.776100     1.000000
  126.1 A     2  4f2-         2.776100     1.000000
  127.1 A     2  4f3-         2.776100     1.000000
  128.1 A     2  4f2+         2.776100     1.000000
  129.1 A     2  4f1+         0.599500     1.000000
  130.1 A     2  4f1-         0.599500     1.000000
  131.1 A     2  4f0          0.599500     1.000000
  132.1 A     2  4f3+         0.599500     1.000000
  133.1 A     2  4f2-         0.599500     1.000000
  134.1 A     2  4f3-         0.599500     1.000000
  135.1 A     2  4f2+         0.599500     1.000000
  136.1 A     2  4f1+         0.242400     1.000000
  137.1 A     2  4f1-         0.242400     1.000000
  138.1 A     2  4f0          0.242400     1.000000
  139.1 A     2  4f3+         0.242400     1.000000
  140.1 A     2  4f2-         0.242400     1.000000
  141.1 A     2  4f3-         0.242400     1.000000
  142.1 A     2  4f2+         0.242400     1.000000

 NUCLEAR CHARGE:                   50
 NUMBER OF PRIMITIVE AOS:         342
 NUMBER OF SYMMETRY AOS:          294
 NUMBER OF CONTRACTIONS:          142   (  142A   )
 NUMBER OF INNER CORE ORBITALS:     0   (    0A   )
 NUMBER OF OUTER CORE ORBITALS:    18   (   18A   )
 NUMBER OF VALENCE ORBITALS:        8   (    8A   )


 LX: A            LY: A            LZ: A  


 NUCLEAR REPULSION ENERGY  144.99594775


 Library entry BR     S VTZ-PP-F12_MP2       selected for DF group  1
 Library entry BR     P VTZ-PP-F12_MP2       selected for DF group  1
 Library entry BR     D VTZ-PP-F12_MP2       selected for DF group  1
 Library entry BR     F VTZ-PP-F12_MP2       selected for DF group  1
 Library entry BR     G VTZ-PP-F12_MP2       selected for DF group  1
 Library entry BR     H VTZ-PP-F12_MP2       selected for DF group  1
 Basis set:    DF
 Basis size:   540
 Sphericals:   T
 =======================================
 Centre l       exponent    contractions
 =======================================

    1   s      65.394600      1.000000
    1   s      33.889800      1.000000
    1   s      18.209800      1.000000
    1   s      12.407200      1.000000
    1   s       6.233610      1.000000
    1   s       3.274820      1.000000
    1   s       1.853940      1.000000
    1   s       1.057760      1.000000
    1   s       0.612443      1.000000
    1   s       0.379715      1.000000
    1   s       0.224769      1.000000
    1   s       0.133171      1.000000

    1   p      31.880200      1.000000
    1   p      17.902800      1.000000
    1   p      10.461900      1.000000
    1   p       5.696780      1.000000
    1   p       3.444540      1.000000
    1   p       2.010480      1.000000
    1   p       1.174970      1.000000
    1   p       0.749111      1.000000
    1   p       0.455896      1.000000
    1   p       0.248988      1.000000
    1   p       0.149545      1.000000

    1   d      36.524700      1.000000
    1   d      16.172800      1.000000
    1   d       7.720800      1.000000
    1   d       4.377080      1.000000
    1   d       2.340640      1.000000
    1   d       1.435950      1.000000
    1   d       0.915926      1.000000
    1   d       0.583050      1.000000
    1   d       0.310149      1.000000
    1   d       0.144622      1.000000
    1   d       0.075880      1.000000

    1   f      36.066500      1.000000
    1   f      18.155900      1.000000
    1   f       7.799250      1.000000
    1   f       4.619070      1.000000
    1   f       2.075040      1.000000
    1   f       1.220160      1.000000
    1   f       0.731965      1.000000
    1   f       0.372994      1.000000
    1   f       0.132042      1.000000

    1   g      60.804100      1.000000
    1   g      23.936900      1.000000
    1   g       9.019200      1.000000
    1   g       4.892410      1.000000
    1   g       2.228790      1.000000
    1   g       1.362090      1.000000
    1   g       0.601528      1.000000

    1   h      17.993800      1.000000
    1   h       8.581060      1.000000
    1   h       3.637670      1.000000
    1   h       1.508540      1.000000

    2   s      65.394600      1.000000
    2   s      33.889800      1.000000
    2   s      18.209800      1.000000
    2   s      12.407200      1.000000
    2   s       6.233610      1.000000
    2   s       3.274820      1.000000
    2   s       1.853940      1.000000
    2   s       1.057760      1.000000
    2   s       0.612443      1.000000
    2   s       0.379715      1.000000
    2   s       0.224769      1.000000
    2   s       0.133171      1.000000

    2   p      31.880200      1.000000
    2   p      17.902800      1.000000
    2   p      10.461900      1.000000
    2   p       5.696780      1.000000
    2   p       3.444540      1.000000
    2   p       2.010480      1.000000
    2   p       1.174970      1.000000
    2   p       0.749111      1.000000
    2   p       0.455896      1.000000
    2   p       0.248988      1.000000
    2   p       0.149545      1.000000

    2   d      36.524700      1.000000
    2   d      16.172800      1.000000
    2   d       7.720800      1.000000
    2   d       4.377080      1.000000
    2   d       2.340640      1.000000
    2   d       1.435950      1.000000
    2   d       0.915926      1.000000
    2   d       0.583050      1.000000
    2   d       0.310149      1.000000
    2   d       0.144622      1.000000
    2   d       0.075880      1.000000

    2   f      36.066500      1.000000
    2   f      18.155900      1.000000
    2   f       7.799250      1.000000
    2   f       4.619070      1.000000
    2   f       2.075040      1.000000
    2   f       1.220160      1.000000
    2   f       0.731965      1.000000
    2   f       0.372994      1.000000
    2   f       0.132042      1.000000

    2   g      60.804100      1.000000
    2   g      23.936900      1.000000
    2   g       9.019200      1.000000
    2   g       4.892410      1.000000
    2   g       2.228790      1.000000
    2   g       1.362090      1.000000
    2   g       0.601528      1.000000

    2   h      17.993800      1.000000
    2   h       8.581060      1.000000
    2   h       3.637670      1.000000
    2   h       1.508540      1.000000
 =======================================

 Library entry BR     S def2-QZVPP-JKFIT     selected for JK group  1
 Library entry BR     P def2-QZVPP-JKFIT     selected for JK group  1
 Library entry BR     D def2-QZVPP-JKFIT     selected for JK group  1
 Library entry BR     F def2-QZVPP-JKFIT     selected for JK group  1
 Library entry BR     G def2-QZVPP-JKFIT     selected for JK group  1
 Library entry BR     H def2-QZVPP-JKFIT     selected for JK group  1
 Basis set:    JK
 Basis size:   532
 Sphericals:   T
 =======================================
 Centre l       exponent    contractions
 =======================================

    1   s   18095.306651      0.145063
    1   s    8408.841805      0.057914
    1   s    4014.768514      0.412299
    1   s    1967.734255      0.482317

    1   s     989.106218      1.000000
    1   s     509.376962      1.000000
    1   s     268.450697      1.000000
    1   s     144.606194      1.000000
    1   s      79.512228      1.000000
    1   s      44.564896      1.000000
    1   s      25.422121      1.000000
    1   s      14.736716      1.000000
    1   s       8.666305      1.000000
    1   s       5.161222      1.000000
    1   s       3.107187      1.000000
    1   s       1.887394      1.000000
    1   s       1.154516      1.000000
    1   s       0.709780      1.000000
    1   s       0.437688      1.000000
    1   s       0.270175      1.000000

    1   p    3076.100366      0.165169
    1   p    1316.038916      0.368721

    1   p     577.112256      1.000000
    1   p     258.987909      1.000000
    1   p     118.734033      1.000000
    1   p      55.506313      1.000000
    1   p      26.407305      1.000000
    1   p      12.758945      1.000000
    1   p       6.246898      1.000000
    1   p       3.092313      1.000000
    1   p       1.544004      1.000000
    1   p       0.775727      1.000000
    1   p       0.391197      1.000000
    1   p       0.197526      1.000000

    1   d     826.570903      0.261853
    1   d     298.354501      0.965108

    1   d     133.246635      1.000000
    1   d      63.670862      1.000000
    1   d      29.183415      1.000000
    1   d      13.061102      1.000000
    1   d       6.429000      1.000000
    1   d       3.105967      1.000000
    1   d       1.519500      1.000000
    1   d       0.750743      1.000000
    1   d       0.373568      1.000000
    1   d       0.186686      1.000000
    1   d       0.093428      1.000000

    1   f     313.252570      0.226938
    1   f     120.080711      0.973909

    1   f      55.096696      1.000000
    1   f      27.041382      1.000000
    1   f      13.017646      1.000000
    1   f       6.280999      1.000000
    1   f       2.880246      1.000000
    1   f       1.385371      1.000000
    1   f       0.737292      1.000000
    1   f       0.364923      1.000000

    1   g     112.137412      0.197560
    1   g      42.959550      0.980291

    1   g      18.858800      1.000000
    1   g       8.579437      1.000000
    1   g       3.927493      1.000000
    1   g       1.624022      1.000000
    1   g       0.761551      1.000000

    1   h       9.434703      1.000000
    1   h       3.144901      1.000000
    1   h       1.048300      1.000000

    2   s   18095.306651      0.145063
    2   s    8408.841805      0.057914
    2   s    4014.768514      0.412299
    2   s    1967.734255      0.482317

    2   s     989.106218      1.000000
    2   s     509.376962      1.000000
    2   s     268.450697      1.000000
    2   s     144.606194      1.000000
    2   s      79.512228      1.000000
    2   s      44.564896      1.000000
    2   s      25.422121      1.000000
    2   s      14.736716      1.000000
    2   s       8.666305      1.000000
    2   s       5.161222      1.000000
    2   s       3.107187      1.000000
    2   s       1.887394      1.000000
    2   s       1.154516      1.000000
    2   s       0.709780      1.000000
    2   s       0.437688      1.000000
    2   s       0.270175      1.000000

    2   p    3076.100366      0.165169
    2   p    1316.038916      0.368721

    2   p     577.112256      1.000000
    2   p     258.987909      1.000000
    2   p     118.734033      1.000000
    2   p      55.506313      1.000000
    2   p      26.407305      1.000000
    2   p      12.758945      1.000000
    2   p       6.246898      1.000000
    2   p       3.092313      1.000000
    2   p       1.544004      1.000000
    2   p       0.775727      1.000000
    2   p       0.391197      1.000000
    2   p       0.197526      1.000000

    2   d     826.570903      0.261853
    2   d     298.354501      0.965108

    2   d     133.246635      1.000000
    2   d      63.670862      1.000000
    2   d      29.183415      1.000000
    2   d      13.061102      1.000000
    2   d       6.429000      1.000000
    2   d       3.105967      1.000000
    2   d       1.519500      1.000000
    2   d       0.750743      1.000000
    2   d       0.373568      1.000000
    2   d       0.186686      1.000000
    2   d       0.093428      1.000000

    2   f     313.252570      0.226938
    2   f     120.080711      0.973909

    2   f      55.096696      1.000000
    2   f      27.041382      1.000000
    2   f      13.017646      1.000000
    2   f       6.280999      1.000000
    2   f       2.880246      1.000000
    2   f       1.385371      1.000000
    2   f       0.737292      1.000000
    2   f       0.364923      1.000000

    2   g     112.137412      0.197560
    2   g      42.959550      0.980291

    2   g      18.858800      1.000000
    2   g       8.579437      1.000000
    2   g       3.927493      1.000000
    2   g       1.624022      1.000000
    2   g       0.761551      1.000000

    2   h       9.434703      1.000000
    2   h       3.144901      1.000000
    2   h       1.048300      1.000000
 =======================================

 Library entry BR     S def2-QZVPP-JKFIT     selected for RI group  1
 Library entry BR     P def2-QZVPP-JKFIT     selected for RI group  1
 Library entry BR     D def2-QZVPP-JKFIT     selected for RI group  1
 Library entry BR     F def2-QZVPP-JKFIT     selected for RI group  1
 Library entry BR     G def2-QZVPP-JKFIT     selected for RI group  1
 Library entry BR     H def2-QZVPP-JKFIT     selected for RI group  1
 Basis set:    RI
 Basis size:   532
 Sphericals:   T
 =======================================
 Centre l       exponent    contractions
 =======================================

    1   s   18095.306651      0.145063
    1   s    8408.841805      0.057914
    1   s    4014.768514      0.412299
    1   s    1967.734255      0.482317

    1   s     989.106218      1.000000
    1   s     509.376962      1.000000
    1   s     268.450697      1.000000
    1   s     144.606194      1.000000
    1   s      79.512228      1.000000
    1   s      44.564896      1.000000
    1   s      25.422121      1.000000
    1   s      14.736716      1.000000
    1   s       8.666305      1.000000
    1   s       5.161222      1.000000
    1   s       3.107187      1.000000
    1   s       1.887394      1.000000
    1   s       1.154516      1.000000
    1   s       0.709780      1.000000
    1   s       0.437688      1.000000
    1   s       0.270175      1.000000

    1   p    3076.100366      0.165169
    1   p    1316.038916      0.368721

    1   p     577.112256      1.000000
    1   p     258.987909      1.000000
    1   p     118.734033      1.000000
    1   p      55.506313      1.000000
    1   p      26.407305      1.000000
    1   p      12.758945      1.000000
    1   p       6.246898      1.000000
    1   p       3.092313      1.000000
    1   p       1.544004      1.000000
    1   p       0.775727      1.000000
    1   p       0.391197      1.000000
    1   p       0.197526      1.000000

    1   d     826.570903      0.261853
    1   d     298.354501      0.965108

    1   d     133.246635      1.000000
    1   d      63.670862      1.000000
    1   d      29.183415      1.000000
    1   d      13.061102      1.000000
    1   d       6.429000      1.000000
    1   d       3.105967      1.000000
    1   d       1.519500      1.000000
    1   d       0.750743      1.000000
    1   d       0.373568      1.000000
    1   d       0.186686      1.000000
    1   d       0.093428      1.000000

    1   f     313.252570      0.226938
    1   f     120.080711      0.973909

    1   f      55.096696      1.000000
    1   f      27.041382      1.000000
    1   f      13.017646      1.000000
    1   f       6.280999      1.000000
    1   f       2.880246      1.000000
    1   f       1.385371      1.000000
    1   f       0.737292      1.000000
    1   f       0.364923      1.000000

    1   g     112.137412      0.197560
    1   g      42.959550      0.980291

    1   g      18.858800      1.000000
    1   g       8.579437      1.000000
    1   g       3.927493      1.000000
    1   g       1.624022      1.000000
    1   g       0.761551      1.000000

    1   h       9.434703      1.000000
    1   h       3.144901      1.000000
    1   h       1.048300      1.000000

    2   s   18095.306651      0.145063
    2   s    8408.841805      0.057914
    2   s    4014.768514      0.412299
    2   s    1967.734255      0.482317

    2   s     989.106218      1.000000
    2   s     509.376962      1.000000
    2   s     268.450697      1.000000
    2   s     144.606194      1.000000
    2   s      79.512228      1.000000
    2   s      44.564896      1.000000
    2   s      25.422121      1.000000
    2   s      14.736716      1.000000
    2   s       8.666305      1.000000
    2   s       5.161222      1.000000
    2   s       3.107187      1.000000
    2   s       1.887394      1.000000
    2   s       1.154516      1.000000
    2   s       0.709780      1.000000
    2   s       0.437688      1.000000
    2   s       0.270175      1.000000

    2   p    3076.100366      0.165169
    2   p    1316.038916      0.368721

    2   p     577.112256      1.000000
    2   p     258.987909      1.000000
    2   p     118.734033      1.000000
    2   p      55.506313      1.000000
    2   p      26.407305      1.000000
    2   p      12.758945      1.000000
    2   p       6.246898      1.000000
    2   p       3.092313      1.000000
    2   p       1.544004      1.000000
    2   p       0.775727      1.000000
    2   p       0.391197      1.000000
    2   p       0.197526      1.000000

    2   d     826.570903      0.261853
    2   d     298.354501      0.965108

    2   d     133.246635      1.000000
    2   d      63.670862      1.000000
    2   d      29.183415      1.000000
    2   d      13.061102      1.000000
    2   d       6.429000      1.000000
    2   d       3.105967      1.000000
    2   d       1.519500      1.000000
    2   d       0.750743      1.000000
    2   d       0.373568      1.000000
    2   d       0.186686      1.000000
    2   d       0.093428      1.000000

    2   f     313.252570      0.226938
    2   f     120.080711      0.973909

    2   f      55.096696      1.000000
    2   f      27.041382      1.000000
    2   f      13.017646      1.000000
    2   f       6.280999      1.000000
    2   f       2.880246      1.000000
    2   f       1.385371      1.000000
    2   f       0.737292      1.000000
    2   f       0.364923      1.000000

    2   g     112.137412      0.197560
    2   g      42.959550      0.980291

    2   g      18.858800      1.000000
    2   g       8.579437      1.000000
    2   g       3.927493      1.000000
    2   g       1.624022      1.000000
    2   g       0.761551      1.000000

    2   h       9.434703      1.000000
    2   h       3.144901      1.000000
    2   h       1.048300      1.000000
 =======================================


 **********************************************************************************************************************************

 EXTRA SYMMETRY OF AOS IN SYMMETRY 1:   1 1 1 1 1 1 1 2 3 1   2 3 1 2 3 1 2 3 1 2   3 1 2 3 1 1 4 2 5 3   1 4 2 5 3 1 4 2 5 3
                                        1 4 2 5 3 1 4 2 5 3   2 3 1 6 4 7 5 2 3 1   6 4 7 5 2 3 1 6 4 7   5 1 1 1 1 1 1 1 2 3
                                        1 2 3 1 2 3 1 2 3 1   2 3 1 2 3 1 1 4 2 5   3 1 4 2 5 3 1 4 2 5   3 1 4 2 5 3 1 4 2 5
                                        3 2 3 1 6 4 7 5 2 3   1 6 4 7 5 2 3 1 6 4   7 5


 Eigenvalues of metric

         1 0.286E-03 0.880E-03 0.984E-03 0.110E-02 0.119E-02 0.122E-02 0.122E-02 0.128E-02


 OPERATOR DM      FOR CENTER  0  COORDINATES:    0.000000    0.000000    0.000000


 **********************************************************************************************************************************
 DATASETS  * FILE   NREC   LENGTH (MB)   RECORD NAMES
              1      19       29.65       500      610      700      900      950      970     1000      129      960     1100   
                                          VAR    BASINP    GEOM    SYMINP    ZMAT    AOBASIS   BASIS     P2S    ABASIS      S 
                                         1400     1410     1420     1200     1210     1080     1700     1600     1650   
                                           T        V       ECP      H0       H01     AOSYM    OPER      SMH    MOLCAS    

 PROGRAMS   *        TOTAL       INT
 CPU TIMES  *         0.50      0.37
 REAL TIME  *         1.20 SEC
 DISK USED  *        29.97 MB (local),      479.56 MB (total)
 GA USED    *         0.00 MB       (max)       0.00 MB       (current)
 **********************************************************************************************************************************


 Program * Restricted Hartree-Fock

 Coulomb and exchange fitting
 Thresholds for fitting:       THRAO_COUL= 1.0D-15    THRAO_EXCH= 1.0D-13    THRMO= 1.0D-12    THRPROD= 1.0D-12    THRASM= 1.0D-12
                               THR2HLF=    1.0D-12

 Basis set JK loaded. Number of basis functions: 532

 Orbital guess generated from atomic densities. Full valence occupancy:   26
 Using density fitting in orbital guess


 Initial occupancy:  25

 NELEC=   50   SYM=1   MS2= 0   THRE=1.0D-11   THRD=1.0D-06   THRG=1.0D-06  HFMA2=F  DIIS_START=2   DIIS_MAX=10   DIIS_INCORE=F

 Level shifts:    0.00 (CLOSED)    0.00 (OPEN)    0.30 (GAP_MIN)

 ITER           ETOT              DE          GRAD        DDIFF     DIIS  NEXP   TIME(IT)  TIME(TOT)  DIAG
   1     -830.99662415    -830.99662415     0.00D+00     0.98D-01     0     0       0.04      0.09    start
   2     -831.00762201      -0.01099786     0.22D-02     0.43D-02     1     0       0.04      0.13    diag
   3     -831.00995728      -0.00233527     0.12D-02     0.10D-02     2     0       0.04      0.17    diag
   4     -831.01011404      -0.00015676     0.18D-03     0.25D-03     3     0       0.04      0.21    diag
   5     -831.01012895      -0.00001491     0.52D-04     0.66D-04     4     0       0.04      0.25    diag
   6     -831.01012985      -0.00000090     0.16D-04     0.24D-04     5     0       0.03      0.28    diag
   7     -831.01012989      -0.00000003     0.34D-05     0.69D-05     6     0       0.04      0.32    diag
   8     -831.01012989      -0.00000000     0.45D-06     0.74D-06     7     0       0.04      0.36    fixocc
   9     -831.01012989      -0.00000000     0.60D-07     0.10D-06     8     0       0.04      0.40    diag
  10     -831.01012989      -0.00000000     0.64D-08     0.98D-08     9     0       0.04      0.44    diag/orth
  11     -831.01012989       0.00000000     0.67D-09     0.14D-08     0     0       0.04      0.48    diag

 Final occupancy:  25

 !RHF STATE 1.1 Energy               -831.010129886945
  RHF One-electron energy           -1748.793779784631
  RHF Two-electron energy             772.787702149166
  RHF Kinetic energy                  591.461377221677
  RHF Nuclear energy                  144.995947748520
  RHF Virial quotient                  -1.405011657381

 !RHF STATE 1.1 Dipole moment           0.00000000    -0.00000000    -0.00000000
 Dipole moment /Debye                   0.00000000    -0.00000000    -0.00000000

 ELECTRON ORBITALS
 =================

  Orbital  Occupation    Energy    Cen Mu Typ  Coefficients
    1.1     2.00000    -9.87196     1  1  s    0.70715    2  1  s    0.70715
    2.1     2.00000    -9.87191     1  1  s    0.70716    2  1  s   -0.70716
    3.1     2.00000    -7.62618     1  1  pz   0.71034    2  1  pz  -0.71034
    4.1     2.00000    -7.62603     1  1  pz   0.71101    2  1  pz   0.71101
    5.1     2.00000    -7.61478     1  1  py   0.67839    2  1  py   0.67839
    6.1     2.00000    -7.61478     1  1  px   0.67839    2  1  px   0.67839
    7.1     2.00000    -7.61476     1  1  py   0.69680    2  1  py  -0.69680
    8.1     2.00000    -7.61476     1  1  px   0.69680    2  1  px  -0.69680
    9.1     2.00000    -3.17974     1  1  d0   0.70592    2  1  d0   0.70592
   10.1     2.00000    -3.17730     1  1  d0   0.70694    2  1  d0  -0.70694
   11.1     2.00000    -3.17432     1  1  d1+  0.44684    1  1  d1-  0.54741    2  1  d1+ -0.44684    2  1  d1- -0.54741
   12.1     2.00000    -3.17432     1  1  d1+  0.54741    1  1  d1- -0.44684    2  1  d1+ -0.54741    2  1  d1-  0.44684
   13.1     2.00000    -3.17353     1  1  d1-  0.69978    2  1  d1-  0.69978
   14.1     2.00000    -3.17353     1  1  d1+  0.69978    2  1  d1+  0.69978
   15.1     2.00000    -3.16154     1  1  d2-  0.69633    2  1  d2-  0.69633
   16.1     2.00000    -3.16154     1  1  d2+  0.69633    2  1  d2+  0.69633
   17.1     2.00000    -3.16149     1  1  d2-  0.68221    2  1  d2- -0.68221
   18.1     2.00000    -3.16149     1  1  d2+  0.68221    2  1  d2+ -0.68221
   19.1     2.00000    -1.12657     1  2  s    0.65358    2  2  s    0.65358
   20.1     2.00000    -0.97788     1  2  s    0.72532    2  2  s   -0.72532
   21.1     2.00000    -0.53347     1  2  pz   0.58899    2  2  pz  -0.58899
   22.1     2.00000    -0.50390     1  2  px   0.41554    1  2  py   0.52963    2  2  px   0.41554    2  2  py   0.52963
   23.1     2.00000    -0.50390     1  2  px   0.52963    1  2  py  -0.41554    2  2  px   0.52963    2  2  py  -0.41554
   24.1     2.00000    -0.40476     1  2  py   0.74845    2  2  py  -0.74845
   25.1     2.00000    -0.40476     1  2  px   0.74845    2  2  px  -0.74845


 HOMO     25.1    -0.404765 =     -11.0142eV
 LUMO     26.1    -0.004687 =      -0.1275eV
 LUMO-HOMO         0.400078 =      10.8867eV

 Orbitals saved in record  2100.2


 **********************************************************************************************************************************
 DATASETS  * FILE   NREC   LENGTH (MB)   RECORD NAMES
              1      19       29.65       500      610      700      900      950      970     1000      129      960     1100   
                                          VAR    BASINP    GEOM    SYMINP    ZMAT    AOBASIS   BASIS     P2S    ABASIS      S 
                                         1400     1410     1420     1200     1210     1080     1700     1600     1650   
                                           T        V       ECP      H0       H01     AOSYM    OPER      SMH    MOLCAS    

              2       4        0.70       700     1000      520     2100   
                                         GEOM     BASIS   MCVARS     RHF  

 PROGRAMS   *        TOTAL     DF-HF       INT
 CPU TIMES  *         0.99      0.49      0.37
 REAL TIME  *         2.55 SEC
 DISK USED  *        31.81 MB (local),      508.95 MB (total)
 SF USED    *        14.99 MB
 GA USED    *         0.00 MB       (max)       0.00 MB       (current)
 **********************************************************************************************************************************

 Library entry BR     S VTZ-PP-F12_MP2       selected for DF group  1
 Library entry BR     P VTZ-PP-F12_MP2       selected for DF group  1
 Library entry BR     D VTZ-PP-F12_MP2       selected for DF group  1
 Library entry BR     F VTZ-PP-F12_MP2       selected for DF group  1
 Library entry BR     G VTZ-PP-F12_MP2       selected for DF group  1
 Library entry BR     H VTZ-PP-F12_MP2       selected for DF group  1
 Basis set:    DF
 Basis size:   540
 Sphericals:   T
 =======================================
 Centre l       exponent    contractions
 =======================================

    1   s      65.394600      1.000000
    1   s      33.889800      1.000000
    1   s      18.209800      1.000000
    1   s      12.407200      1.000000
    1   s       6.233610      1.000000
    1   s       3.274820      1.000000
    1   s       1.853940      1.000000
    1   s       1.057760      1.000000
    1   s       0.612443      1.000000
    1   s       0.379715      1.000000
    1   s       0.224769      1.000000
    1   s       0.133171      1.000000

    1   p      31.880200      1.000000
    1   p      17.902800      1.000000
    1   p      10.461900      1.000000
    1   p       5.696780      1.000000
    1   p       3.444540      1.000000
    1   p       2.010480      1.000000
    1   p       1.174970      1.000000
    1   p       0.749111      1.000000
    1   p       0.455896      1.000000
    1   p       0.248988      1.000000
    1   p       0.149545      1.000000

    1   d      36.524700      1.000000
    1   d      16.172800      1.000000
    1   d       7.720800      1.000000
    1   d       4.377080      1.000000
    1   d       2.340640      1.000000
    1   d       1.435950      1.000000
    1   d       0.915926      1.000000
    1   d       0.583050      1.000000
    1   d       0.310149      1.000000
    1   d       0.144622      1.000000
    1   d       0.075880      1.000000

    1   f      36.066500      1.000000
    1   f      18.155900      1.000000
    1   f       7.799250      1.000000
    1   f       4.619070      1.000000
    1   f       2.075040      1.000000
    1   f       1.220160      1.000000
    1   f       0.731965      1.000000
    1   f       0.372994      1.000000
    1   f       0.132042      1.000000

    1   g      60.804100      1.000000
    1   g      23.936900      1.000000
    1   g       9.019200      1.000000
    1   g       4.892410      1.000000
    1   g       2.228790      1.000000
    1   g       1.362090      1.000000
    1   g       0.601528      1.000000

    1   h      17.993800      1.000000
    1   h       8.581060      1.000000
    1   h       3.637670      1.000000
    1   h       1.508540      1.000000

    2   s      65.394600      1.000000
    2   s      33.889800      1.000000
    2   s      18.209800      1.000000
    2   s      12.407200      1.000000
    2   s       6.233610      1.000000
    2   s       3.274820      1.000000
    2   s       1.853940      1.000000
    2   s       1.057760      1.000000
    2   s       0.612443      1.000000
    2   s       0.379715      1.000000
    2   s       0.224769      1.000000
    2   s       0.133171      1.000000

    2   p      31.880200      1.000000
    2   p      17.902800      1.000000
    2   p      10.461900      1.000000
    2   p       5.696780      1.000000
    2   p       3.444540      1.000000
    2   p       2.010480      1.000000
    2   p       1.174970      1.000000
    2   p       0.749111      1.000000
    2   p       0.455896      1.000000
    2   p       0.248988      1.000000
    2   p       0.149545      1.000000

    2   d      36.524700      1.000000
    2   d      16.172800      1.000000
    2   d       7.720800      1.000000
    2   d       4.377080      1.000000
    2   d       2.340640      1.000000
    2   d       1.435950      1.000000
    2   d       0.915926      1.000000
    2   d       0.583050      1.000000
    2   d       0.310149      1.000000
    2   d       0.144622      1.000000
    2   d       0.075880      1.000000

    2   f      36.066500      1.000000
    2   f      18.155900      1.000000
    2   f       7.799250      1.000000
    2   f       4.619070      1.000000
    2   f       2.075040      1.000000
    2   f       1.220160      1.000000
    2   f       0.731965      1.000000
    2   f       0.372994      1.000000
    2   f       0.132042      1.000000

    2   g      60.804100      1.000000
    2   g      23.936900      1.000000
    2   g       9.019200      1.000000
    2   g       4.892410      1.000000
    2   g       2.228790      1.000000
    2   g       1.362090      1.000000
    2   g       0.601528      1.000000

    2   h      17.993800      1.000000
    2   h       8.581060      1.000000
    2   h       3.637670      1.000000
    2   h       1.508540      1.000000
 =======================================

 Library entry BR     S def2-QZVPP-JKFIT     selected for JK group  1
 Library entry BR     P def2-QZVPP-JKFIT     selected for JK group  1
 Library entry BR     D def2-QZVPP-JKFIT     selected for JK group  1
 Library entry BR     F def2-QZVPP-JKFIT     selected for JK group  1
 Library entry BR     G def2-QZVPP-JKFIT     selected for JK group  1
 Library entry BR     H def2-QZVPP-JKFIT     selected for JK group  1
 Basis set:    JK
 Basis size:   532
 Sphericals:   T
 =======================================
 Centre l       exponent    contractions
 =======================================

    1   s   18095.306651      0.145063
    1   s    8408.841805      0.057914
    1   s    4014.768514      0.412299
    1   s    1967.734255      0.482317

    1   s     989.106218      1.000000
    1   s     509.376962      1.000000
    1   s     268.450697      1.000000
    1   s     144.606194      1.000000
    1   s      79.512228      1.000000
    1   s      44.564896      1.000000
    1   s      25.422121      1.000000
    1   s      14.736716      1.000000
    1   s       8.666305      1.000000
    1   s       5.161222      1.000000
    1   s       3.107187      1.000000
    1   s       1.887394      1.000000
    1   s       1.154516      1.000000
    1   s       0.709780      1.000000
    1   s       0.437688      1.000000
    1   s       0.270175      1.000000

    1   p    3076.100366      0.165169
    1   p    1316.038916      0.368721

    1   p     577.112256      1.000000
    1   p     258.987909      1.000000
    1   p     118.734033      1.000000
    1   p      55.506313      1.000000
    1   p      26.407305      1.000000
    1   p      12.758945      1.000000
    1   p       6.246898      1.000000
    1   p       3.092313      1.000000
    1   p       1.544004      1.000000
    1   p       0.775727      1.000000
    1   p       0.391197      1.000000
    1   p       0.197526      1.000000

    1   d     826.570903      0.261853
    1   d     298.354501      0.965108

    1   d     133.246635      1.000000
    1   d      63.670862      1.000000
    1   d      29.183415      1.000000
    1   d      13.061102      1.000000
    1   d       6.429000      1.000000
    1   d       3.105967      1.000000
    1   d       1.519500      1.000000
    1   d       0.750743      1.000000
    1   d       0.373568      1.000000
    1   d       0.186686      1.000000
    1   d       0.093428      1.000000

    1   f     313.252570      0.226938
    1   f     120.080711      0.973909

    1   f      55.096696      1.000000
    1   f      27.041382      1.000000
    1   f      13.017646      1.000000
    1   f       6.280999      1.000000
    1   f       2.880246      1.000000
    1   f       1.385371      1.000000
    1   f       0.737292      1.000000
    1   f       0.364923      1.000000

    1   g     112.137412      0.197560
    1   g      42.959550      0.980291

    1   g      18.858800      1.000000
    1   g       8.579437      1.000000
    1   g       3.927493      1.000000
    1   g       1.624022      1.000000
    1   g       0.761551      1.000000

    1   h       9.434703      1.000000
    1   h       3.144901      1.000000
    1   h       1.048300      1.000000

    2   s   18095.306651      0.145063
    2   s    8408.841805      0.057914
    2   s    4014.768514      0.412299
    2   s    1967.734255      0.482317

    2   s     989.106218      1.000000
    2   s     509.376962      1.000000
    2   s     268.450697      1.000000
    2   s     144.606194      1.000000
    2   s      79.512228      1.000000
    2   s      44.564896      1.000000
    2   s      25.422121      1.000000
    2   s      14.736716      1.000000
    2   s       8.666305      1.000000
    2   s       5.161222      1.000000
    2   s       3.107187      1.000000
    2   s       1.887394      1.000000
    2   s       1.154516      1.000000
    2   s       0.709780      1.000000
    2   s       0.437688      1.000000
    2   s       0.270175      1.000000

    2   p    3076.100366      0.165169
    2   p    1316.038916      0.368721

    2   p     577.112256      1.000000
    2   p     258.987909      1.000000
    2   p     118.734033      1.000000
    2   p      55.506313      1.000000
    2   p      26.407305      1.000000
    2   p      12.758945      1.000000
    2   p       6.246898      1.000000
    2   p       3.092313      1.000000
    2   p       1.544004      1.000000
    2   p       0.775727      1.000000
    2   p       0.391197      1.000000
    2   p       0.197526      1.000000

    2   d     826.570903      0.261853
    2   d     298.354501      0.965108

    2   d     133.246635      1.000000
    2   d      63.670862      1.000000
    2   d      29.183415      1.000000
    2   d      13.061102      1.000000
    2   d       6.429000      1.000000
    2   d       3.105967      1.000000
    2   d       1.519500      1.000000
    2   d       0.750743      1.000000
    2   d       0.373568      1.000000
    2   d       0.186686      1.000000
    2   d       0.093428      1.000000

    2   f     313.252570      0.226938
    2   f     120.080711      0.973909

    2   f      55.096696      1.000000
    2   f      27.041382      1.000000
    2   f      13.017646      1.000000
    2   f       6.280999      1.000000
    2   f       2.880246      1.000000
    2   f       1.385371      1.000000
    2   f       0.737292      1.000000
    2   f       0.364923      1.000000

    2   g     112.137412      0.197560
    2   g      42.959550      0.980291

    2   g      18.858800      1.000000
    2   g       8.579437      1.000000
    2   g       3.927493      1.000000
    2   g       1.624022      1.000000
    2   g       0.761551      1.000000

    2   h       9.434703      1.000000
    2   h       3.144901      1.000000
    2   h       1.048300      1.000000
 =======================================

 Library entry BR     S def2-QZVPP-JKFIT     selected for RI group  1
 Library entry BR     P def2-QZVPP-JKFIT     selected for RI group  1
 Library entry BR     D def2-QZVPP-JKFIT     selected for RI group  1
 Library entry BR     F def2-QZVPP-JKFIT     selected for RI group  1
 Library entry BR     G def2-QZVPP-JKFIT     selected for RI group  1
 Library entry BR     H def2-QZVPP-JKFIT     selected for RI group  1
 Basis set:    RI
 Basis size:   532
 Sphericals:   T
 =======================================
 Centre l       exponent    contractions
 =======================================

    1   s   18095.306651      0.145063
    1   s    8408.841805      0.057914
    1   s    4014.768514      0.412299
    1   s    1967.734255      0.482317

    1   s     989.106218      1.000000
    1   s     509.376962      1.000000
    1   s     268.450697      1.000000
    1   s     144.606194      1.000000
    1   s      79.512228      1.000000
    1   s      44.564896      1.000000
    1   s      25.422121      1.000000
    1   s      14.736716      1.000000
    1   s       8.666305      1.000000
    1   s       5.161222      1.000000
    1   s       3.107187      1.000000
    1   s       1.887394      1.000000
    1   s       1.154516      1.000000
    1   s       0.709780      1.000000
    1   s       0.437688      1.000000
    1   s       0.270175      1.000000

    1   p    3076.100366      0.165169
    1   p    1316.038916      0.368721

    1   p     577.112256      1.000000
    1   p     258.987909      1.000000
    1   p     118.734033      1.000000
    1   p      55.506313      1.000000
    1   p      26.407305      1.000000
    1   p      12.758945      1.000000
    1   p       6.246898      1.000000
    1   p       3.092313      1.000000
    1   p       1.544004      1.000000
    1   p       0.775727      1.000000
    1   p       0.391197      1.000000
    1   p       0.197526      1.000000

    1   d     826.570903      0.261853
    1   d     298.354501      0.965108

    1   d     133.246635      1.000000
    1   d      63.670862      1.000000
    1   d      29.183415      1.000000
    1   d      13.061102      1.000000
    1   d       6.429000      1.000000
    1   d       3.105967      1.000000
    1   d       1.519500      1.000000
    1   d       0.750743      1.000000
    1   d       0.373568      1.000000
    1   d       0.186686      1.000000
    1   d       0.093428      1.000000

    1   f     313.252570      0.226938
    1   f     120.080711      0.973909

    1   f      55.096696      1.000000
    1   f      27.041382      1.000000
    1   f      13.017646      1.000000
    1   f       6.280999      1.000000
    1   f       2.880246      1.000000
    1   f       1.385371      1.000000
    1   f       0.737292      1.000000
    1   f       0.364923      1.000000

    1   g     112.137412      0.197560
    1   g      42.959550      0.980291

    1   g      18.858800      1.000000
    1   g       8.579437      1.000000
    1   g       3.927493      1.000000
    1   g       1.624022      1.000000
    1   g       0.761551      1.000000

    1   h       9.434703      1.000000
    1   h       3.144901      1.000000
    1   h       1.048300      1.000000

    2   s   18095.306651      0.145063
    2   s    8408.841805      0.057914
    2   s    4014.768514      0.412299
    2   s    1967.734255      0.482317

    2   s     989.106218      1.000000
    2   s     509.376962      1.000000
    2   s     268.450697      1.000000
    2   s     144.606194      1.000000
    2   s      79.512228      1.000000
    2   s      44.564896      1.000000
    2   s      25.422121      1.000000
    2   s      14.736716      1.000000
    2   s       8.666305      1.000000
    2   s       5.161222      1.000000
    2   s       3.107187      1.000000
    2   s       1.887394      1.000000
    2   s       1.154516      1.000000
    2   s       0.709780      1.000000
    2   s       0.437688      1.000000
    2   s       0.270175      1.000000

    2   p    3076.100366      0.165169
    2   p    1316.038916      0.368721

    2   p     577.112256      1.000000
    2   p     258.987909      1.000000
    2   p     118.734033      1.000000
    2   p      55.506313      1.000000
    2   p      26.407305      1.000000
    2   p      12.758945      1.000000
    2   p       6.246898      1.000000
    2   p       3.092313      1.000000
    2   p       1.544004      1.000000
    2   p       0.775727      1.000000
    2   p       0.391197      1.000000
    2   p       0.197526      1.000000

    2   d     826.570903      0.261853
    2   d     298.354501      0.965108

    2   d     133.246635      1.000000
    2   d      63.670862      1.000000
    2   d      29.183415      1.000000
    2   d      13.061102      1.000000
    2   d       6.429000      1.000000
    2   d       3.105967      1.000000
    2   d       1.519500      1.000000
    2   d       0.750743      1.000000
    2   d       0.373568      1.000000
    2   d       0.186686      1.000000
    2   d       0.093428      1.000000

    2   f     313.252570      0.226938
    2   f     120.080711      0.973909

    2   f      55.096696      1.000000
    2   f      27.041382      1.000000
    2   f      13.017646      1.000000
    2   f       6.280999      1.000000
    2   f       2.880246      1.000000
    2   f       1.385371      1.000000
    2   f       0.737292      1.000000
    2   f       0.364923      1.000000

    2   g     112.137412      0.197560
    2   g      42.959550      0.980291

    2   g      18.858800      1.000000
    2   g       8.579437      1.000000
    2   g       3.927493      1.000000
    2   g       1.624022      1.000000
    2   g       0.761551      1.000000

    2   h       9.434703      1.000000
    2   h       3.144901      1.000000
    2   h       1.048300      1.000000
 =======================================


 PROGRAM * MP2 (Closed-shell)     Authors: C. Hampel, H.-J. Werner, 1991, M. Deegan, P.J. Knowles, 1992

                                   MP2-F12 implementation by H.-J. Werner, 2007

                   Density fitting integral evaluation by F.R. Manby, 2003,2007, G. Knizia, 2010



 Convergence thresholds:  THRVAR = 1.00D-08  THRDEN = 1.00D-09

 Number of core orbitals:          18 (  18 )
 Number of closed-shell orbitals:   7 (   7 )
 Number of external orbitals:     117 ( 117 )

 Molecular orbitals read from record     2100.2  Type=RHF/CANONICAL  

 MP2-F12 correlation treatment (H.-J. Werner, 2006)
 ==================================================

 Some Fock operators are calculated for F12-singles only.

 AO(A)-basis ORBITAL           loaded. Number of functions:     142
 RI(R)-basis RI                loaded. Number of functions:     532
 Basis set JK loaded. Number of basis functions: 532 
 DF-basis JK                   loaded. Number of functions:     532

 Screening thresholds:   THRAO=  1.00D-10  THRMO=  1.00D-09  THRPROD=  1.00D-09
                         THRSW=  1.00D-05  THROV=  1.00D-12  THRAOF12= 1.00D-08

 CPU time for Fock operators                      0.97 sec

 Construction of ABS:
 Smallest eigenvalue of S          2.26E-06  (threshold= 1.00E-09)
 Ratio eigmin/eigmax               2.98E-07  (threshold= 1.00E-09)
 Smallest eigenvalue of S kept     2.26E-06  (threshold= 2.26E-06, 0 functions deleted, 532 kept)

 Construction of CABS:
 Smallest eigenvalue of S          5.06E-11  (threshold= 1.00E-09)
 Ratio eigmin/eigmax               5.06E-11  (threshold= 1.00E-09)
 Smallest eigenvalue of S kept     4.94E-08  (threshold= 4.94E-08, 2 functions deleted, 530 kept)

 CPU time for CABS singles                        0.08 sec

 CABS-singles contribution of  -0.00062386 patched into reference energy.
 New reference energy        -831.01075375

 Leaving lmp2-f12 by request (CABS_SINGLES < 0) after calculation of singles.


  Reference energy                   -831.010129886946
  F12 singles correction               -0.000623863495

 F12 singles corrections added to reference energy

  New reference energy               -831.010753750441

  F12 singlet correction                0.000000000000
  F12 triplet correction                0.000000000000
  F12 total correction                  0.000000000000
  MP2-F12 singlet pair energy           0.000000000000
  MP2-F12 triplet pair energy           0.000000000000
  MP2-F12 correlation energy            0.000000000000

 !MP2-F12 total energy               -831.010753750441


 **********************************************************************************************************************************
 DATASETS  * FILE   NREC   LENGTH (MB)   RECORD NAMES
              1      19       29.65       500      610      700      900      950      970     1000      129      960     1100   
                                          VAR    BASINP    GEOM    SYMINP    ZMAT    AOBASIS   BASIS     P2S    ABASIS      S 
                                         1400     1410     1420     1200     1210     1080     1700     1600     1650   
                                           T        V       ECP      H0       H01     AOSYM    OPER      SMH    MOLCAS    

              2       5        0.94       700     1000      520     2100     7360   
                                         GEOM     BASIS   MCVARS     RHF    F12ABS    

 PROGRAMS   *        TOTAL   DF-CABS     DF-HF       INT
 CPU TIMES  *         2.20      1.21      0.49      0.37
 REAL TIME  *         3.90 SEC
 DISK USED  *        31.81 MB (local),      508.95 MB (total)
 SF USED    *       291.33 MB
 GA USED    *         3.05 MB       (max)       0.00 MB       (current)
 **********************************************************************************************************************************

 DF-CABS/cc-pVTZ-PP-F12 energy=   -831.010753750441

         DF-CABS           DF-HF
   -831.01075375   -831.01012989
 **********************************************************************************************************************************
 Molpro calculation terminated
