
                                 *****************
                                 * O   R   C   A *
                                 *****************

                                            #,                                       
                                            ###                                      
                                            ####                                     
                                            #####                                    
                                            ######                                   
                                           ########,                                 
                                     ,,################,,,,,                         
                               ,,#################################,,                 
                          ,,##########################################,,             
                       ,#########################################, ''#####,          
                    ,#############################################,,   '####,        
                  ,##################################################,,,,####,       
                ,###########''''           ''''###############################       
              ,#####''   ,,,,##########,,,,          '''####'''          '####       
            ,##' ,,,,###########################,,,                        '##       
           ' ,,###''''                  '''############,,,                           
         ,,##''                                '''############,,,,        ,,,,,,###''
      ,#''                                            '''#######################'''  
     '                                                          ''''####''''         
             ,#######,   #######,   ,#######,      ##                                
            ,#'     '#,  ##    ##  ,#'     '#,    #''#        ######   ,####,        
            ##       ##  ##   ,#'  ##            #'  '#       #        #'  '#        
            ##       ##  #######   ##           ,######,      #####,   #    #        
            '#,     ,#'  ##    ##  '#,     ,#' ,#      #,         ##   #,  ,#        
             '#######'   ##     ##  '#######'  #'      '#     #####' # '####'        



                  #######################################################
                  #                        -***-                        #
                  #          Department of theory and spectroscopy      #
                  #    Directorship and core code : Frank Neese         #
                  #        Max Planck Institute fuer Kohlenforschung    #
                  #                Kaiser Wilhelm Platz 1               #
                  #                 D-45470 Muelheim/Ruhr               #
                  #                      Germany                        #
                  #                                                     #
                  #                  All rights reserved                #
                  #                        -***-                        #
                  #######################################################


                         Program Version 5.0.4 -  RELEASE  -


 With contributions from (in alphabetic order):
   Daniel Aravena         : Magnetic Suceptibility
   Michael Atanasov       : Ab Initio Ligand Field Theory (pilot matlab implementation)
   Alexander A. Auer      : GIAO ZORA, VPT2 properties, NMR spectrum
   Ute Becker             : Parallelization
   Giovanni Bistoni       : ED, misc. LED, open-shell LED, HFLD
   Martin Brehm           : Molecular dynamics
   Dmytro Bykov           : SCF Hessian
   Vijay G. Chilkuri      : MRCI spin determinant printing, contributions to CSF-ICE
   Dipayan Datta          : RHF DLPNO-CCSD density
   Achintya Kumar Dutta   : EOM-CC, STEOM-CC
   Dmitry Ganyushin       : Spin-Orbit,Spin-Spin,Magnetic field MRCI
   Miquel Garcia          : C-PCM and meta-GGA Hessian, CC/C-PCM, Gaussian charge scheme
   Yang Guo               : DLPNO-NEVPT2, F12-NEVPT2, CIM, IAO-localization
   Andreas Hansen         : Spin unrestricted coupled pair/coupled cluster methods
   Benjamin Helmich-Paris : MC-RPA, TRAH-SCF, COSX integrals
   Lee Huntington         : MR-EOM, pCC
   Robert Izsak           : Overlap fitted RIJCOSX, COSX-SCS-MP3, EOM
   Marcus Kettner         : VPT2
   Christian Kollmar      : KDIIS, OOCD, Brueckner-CCSD(T), CCSD density, CASPT2, CASPT2-K
   Simone Kossmann        : Meta GGA functionals, TD-DFT gradient, OOMP2, MP2 Hessian
   Martin Krupicka        : Initial AUTO-CI
   Lucas Lang             : DCDCAS
   Marvin Lechner         : AUTO-CI (C++ implementation), FIC-MRCC
   Dagmar Lenk            : GEPOL surface, SMD
   Dimitrios Liakos       : Extrapolation schemes; Compound Job, initial MDCI parallelization
   Dimitrios Manganas     : Further ROCIS development; embedding schemes
   Dimitrios Pantazis     : SARC Basis sets
   Anastasios Papadopoulos: AUTO-CI, single reference methods and gradients
   Taras Petrenko         : DFT Hessian,TD-DFT gradient, ASA, ECA, R-Raman, ABS, FL, XAS/XES, NRVS
   Peter Pinski           : DLPNO-MP2, DLPNO-MP2 Gradient
   Christoph Reimann      : Effective Core Potentials
   Marius Retegan         : Local ZFS, SOC
   Christoph Riplinger    : Optimizer, TS searches, QM/MM, DLPNO-CCSD(T), (RO)-DLPNO pert. Triples
   Tobias Risthaus        : Range-separated hybrids, TD-DFT gradient, RPA, STAB
   Michael Roemelt        : Original ROCIS implementation
   Masaaki Saitow         : Open-shell DLPNO-CCSD energy and density
   Barbara Sandhoefer     : DKH picture change effects
   Avijit Sen             : IP-ROCIS
   Kantharuban Sivalingam : CASSCF convergence, NEVPT2, FIC-MRCI
   Bernardo de Souza      : ESD, SOC TD-DFT
   Georgi Stoychev        : AutoAux, RI-MP2 NMR, DLPNO-MP2 response
   Willem Van den Heuvel  : Paramagnetic NMR
   Boris Wezisla          : Elementary symmetry handling
   Frank Wennmohs         : Technical directorship


 We gratefully acknowledge several colleagues who have allowed us to
 interface, adapt or use parts of their codes:
   Stefan Grimme, W. Hujo, H. Kruse, P. Pracht,  : VdW corrections, initial TS optimization,
                  C. Bannwarth, S. Ehlert          DFT functionals, gCP, sTDA/sTD-DF
   Ed Valeev, F. Pavosevic, A. Kumar             : LibInt (2-el integral package), F12 methods
   Garnet Chan, S. Sharma, J. Yang, R. Olivares  : DMRG
   Ulf Ekstrom                                   : XCFun DFT Library
   Mihaly Kallay                                 : mrcc  (arbitrary order and MRCC methods)
   Jiri Pittner, Ondrej Demel                    : Mk-CCSD
   Frank Weinhold                                : gennbo (NPA and NBO analysis)
   Christopher J. Cramer and Donald G. Truhlar   : smd solvation model
   Lars Goerigk                                  : TD-DFT with DH, B97 family of functionals
   V. Asgeirsson, H. Jonsson                     : NEB implementation
   FAccTs GmbH                                   : IRC, NEB, NEB-TS, DLPNO-Multilevel, CI-OPT
                                                   MM, QMMM, 2- and 3-layer-ONIOM, Crystal-QMMM,
                                                   LR-CPCM, SF, NACMEs, symmetry and pop. for TD-DFT,
                                                   nearIR, NL-DFT gradient (VV10), updates on ESD,
                                                   ML-optimized integration grids
   S Lehtola, MJT Oliveira, MAL Marques          : LibXC Library
   Liviu Ungur et al                             : ANISO software


 Your calculation uses the libint2 library for the computation of 2-el integrals
 For citations please refer to: http://libint.valeyev.net

 Your ORCA version has been built with support for libXC version: 5.1.0
 For citations please refer to: https://tddft.org/programs/libxc/

 This ORCA versions uses:
   CBLAS   interface :  Fast vector & matrix operations
   LAPACKE interface :  Fast linear algebra routines
   SCALAPACK package :  Parallel linear algebra routines
   Shared memory     :  Shared parallel matrices
   BLAS/LAPACK       :  OpenBLAS 0.3.15  USE64BITINT DYNAMIC_ARCH NO_AFFINITY Haswell SINGLE_THREADED
        Core in use  :  Haswell
   Copyright (c) 2011-2014, The OpenBLAS Project


================================================================================

----- Orbital basis set information -----
Your calculation utilizes the basis: def2-SVP
   F. Weigend and R. Ahlrichs, Phys. Chem. Chem. Phys. 7, 3297 (2005).

The basis set includes element-specific modifications.

----- AuxJ basis set information -----
Your calculation utilizes the auxiliary basis: def2/J
   F. Weigend, Phys. Chem. Chem. Phys. 8, 1057 (2006).

The basis set includes element-specific modifications.

================================================================================
                                        WARNINGS
                       Please study these warnings very carefully!
================================================================================


INFO   : the flag for use of the SHARK integral package has been found!


WARNING: TRAH-SCF with ROHF wave function is not implemented yet
  ===> : Turning TRAH off

================================================================================
                                       INPUT FILE
================================================================================
NAME = i2_atom53.inp
|  1> # input to generate an atomic fitting density for I 
|  2> # this file is used internally by ORCA
|  3> #
|  4> # atomic ground state (S=2): 1s2 2s2 2p6 3s2 3p6 4s2 3d10 4p6 5s2 4d10 5p5 
|  5> #
|  6> ! RHF AllowRHF def2-SVP def2/J  NoMulliken NoLoewdin NoMayer NoPrintMOs 
|  7> 
|  8> %output print[p_atomdensfit] 2 end
|  9> 
| 10> %scf
| 11>   guess hcore
| 12>   maxiter 1000
| 13>   maxdisk 500000
| 14>   SCFMode Conventional
| 15>   lshift 1.000000
| 16>   hftyp rohf
| 17>   rohf_case sahf
| 18>   rohf_numop   2
| 19>   rohf_norb[1] 3
| 20>   rohf_nel[1]  5
| 21> end
| 22> 
| 23> %basis
| 24>   NewECP 53
| 25>     N_core 28
| 26>     lmax g
| 27>     s 3
| 28>       1      40.0333760000     49.9896490000  2
| 29>       2      17.3005760000    281.0065560000  2
| 30>       3       8.8517200000     61.4167390000  2
| 31>     p 4
| 32>       1      15.7201410000     67.4162390000  2
| 33>       2      15.2082220000    134.8076960000  2
| 34>       3       8.2941860000     14.5665480000  2
| 35>       4       7.7539490000     28.9684220000  2
| 36>     d 4
| 37>       1      13.8177510000     35.5387560000  2
| 38>       2      13.5878050000     53.3397590000  2
| 39>       3       6.9476300000      9.7164660000  2
| 40>       4       6.9600990000     14.9775000000  2
| 41>     f 4
| 42>       1      18.5229500000    -20.1766180000  2
| 43>       2      18.2510350000    -26.0880770000  2
| 44>       3       7.5579010000     -0.2204340000  2
| 45>       4       7.5974040000     -0.2216460000  2
| 46>     g 1
| 47>       1       1.0000000000      0.0000000000  2
| 48>   end
| 49>   NewGTO 53
| 50>     s 14 
| 51>      1   16900.0000000000      0.0000400000
| 52>      2    2541.3900000000      0.0002939999
| 53>      3     574.4130000000      0.0012139996
| 54>      4     150.9450000000      0.0025959993
| 55>      5      29.1631000000     -0.0536229845
| 56>      6      18.2196000000      0.3439169007
| 57>      7      11.3365000000     -0.3674268939
| 58>      8       6.9240800000     -0.5389038443
| 59>      9       2.5098100000      0.7095667950
| 60>     10       1.3511300000      0.6280608186
| 61>     11       0.6163790000      0.0918419735
| 62>     12       0.3834550000     -0.0122429965
| 63>     13       0.1800560000      0.0028749992
| 64>     14       0.0823270000     -0.0002889999
| 65>     s 14 
| 66>      1   16900.0000000000      0.0000190000
| 67>      2    2541.3900000000      0.0001420000
| 68>      3     574.4130000000      0.0005919998
| 69>      4     150.9450000000      0.0012429996
| 70>      5      29.1631000000     -0.0227209933
| 71>      6      18.2196000000      0.1577079532
| 72>      7      11.3365000000     -0.2000919406
| 73>      8       6.9240800000     -0.2161519359
| 74>      9       2.5098100000      0.4134388773
| 75>     10       1.3511300000      0.5345848414
| 76>     11       0.6163790000      0.0923519726
| 77>     12       0.3834550000     -0.5884628254
| 78>     13       0.1800560000     -0.6192808162
| 79>     14       0.0823270000     -0.1513989551
| 80>     s 1 
| 81>      1       0.6163790000      1.0000000000
| 82>     s 1 
| 83>      1       0.3834550000      1.0000000000
| 84>     s 1 
| 85>      1       0.1800560000      1.0000000000
| 86>     s 1 
| 87>      1       0.0823270000      1.0000000000
| 88>     s 1 
| 89>      1       0.0331000000      1.0000000000
| 90>     p 11 
| 91>      1     649.1590000000      0.0000950001
| 92>      2     148.0870000000      0.0006290004
| 93>      3      20.1018000000      0.0453240280
| 94>      4      10.4466000000     -0.2302311423
| 95>      5       6.3588300000     -0.0049600031
| 96>      6       3.0484600000      0.5139273177
| 97>      7       1.5595000000      0.5060933128
| 98>      8       0.7689110000      0.1316590814
| 99>      9       0.3548140000      0.0061250038
|100>     10       0.1547660000      0.0017460011
|101>     11       0.0646990000      0.0000920001
|102>     p 11 
|103>      1     649.1590000000     -0.0000320000
|104>      2     148.0870000000     -0.0002530001
|105>      3      20.1018000000     -0.0160980056
|106>      4      10.4466000000      0.0899100312
|107>      5       6.3588300000     -0.0156550054
|108>      6       3.0484600000     -0.2077830721
|109>      7       1.5595000000     -0.2480810861
|110>      8       0.7689110000      0.0403340140
|111>      9       0.3548140000      0.4515731568
|112>     10       0.1547660000      0.5031311747
|113>     11       0.0646990000      0.1755330609
|114>     p 1 
|115>      1       0.7689110000      1.0000000000
|116>     p 1 
|117>      1       0.3548140000      1.0000000000
|118>     p 1 
|119>      1       0.1547660000      1.0000000000
|120>     p 1 
|121>      1       0.0646990000      1.0000000000
|122>     p 1 
|123>      1       0.0257000000      1.0000000000
|124>     d 12 
|125>      1     585.4450000000      0.0000250000
|126>      2     177.4680000000      0.0002309999
|127>      3      69.2193000000      0.0011729994
|128>      4      28.6392000000      0.0055839973
|129>      5      12.7153000000     -0.0238299884
|130>      6       5.4792700000      0.1168139429
|131>      7       3.3549300000      0.2727308668
|132>      8       1.9842300000      0.3401738338
|133>      9       1.1525400000      0.2686988687
|134>     10       0.6510170000      0.1298089366
|135>     11       0.3474450000      0.0330439839
|136>     12       0.1547000000      0.0030669985
|137>     d 1 
|138>      1       1.9544000000      1.0000000000
|139>     d 1 
|140>      1       0.4543000000      1.0000000000
|141>     d 1 
|142>      1       0.2253000000      1.0000000000
|143>     d 1 
|144>      1       0.1118000000      1.0000000000
|145>   end
|146>   NewAuxGTO 53
|147>     S 1
|148>      1 1310.72 1.0
|149>     S 1
|150>      1  655.36 1.0
|151>     S 1
|152>      1  327.68 1.0
|153>     S 1
|154>      1  163.84 1.0
|155>     S 1
|156>      1   81.82 1.0
|157>     S 1
|158>      1   40.96 1.0
|159>     S 1
|160>      1   20.48 1.0
|161>     S 1
|162>      1   10.24 1.0
|163>     S 1
|164>      1    5.12 1.0
|165>     S 1
|166>      1    2.56 1.0
|167>     S 1
|168>      1    1.28 1.0
|169>     S 1
|170>      1    0.64 1.0
|171>     S 1
|172>      1    0.32 1.0
|173>     S 1
|174>      1    0.16 1.0
|175>     S 1
|176>      1    0.08 1.0
|177>     S 1
|178>      1    0.04 1.0
|179>     S 1
|180>      1    0.02 1.0
|181>     S 1
|182>      1    0.01 1.0
|183>   end
|184> end
|185> 
|186> * xyz 0 2
|187> 53  0.0 0.0 0.0
|188> *
|189> 
|190> 
|191>                          ****END OF INPUT****
================================================================================

                       ****************************
                       * Single Point Calculation *
                       ****************************

---------------------------------
CARTESIAN COORDINATES (ANGSTROEM)
---------------------------------
  I      0.000000    0.000000    0.000000

----------------------------
CARTESIAN COORDINATES (A.U.)
----------------------------
  NO LB      ZA    FRAG     MASS         X           Y           Z
   0 I    25.0000*   0   126.900    0.000000    0.000000    0.000000
* core charge reduced due to ECP

--------------------------------
INTERNAL COORDINATES (ANGSTROEM)
--------------------------------
 I      0   0   0     0.000000000000     0.00000000     0.00000000

---------------------------
INTERNAL COORDINATES (A.U.)
---------------------------
 I      0   0   0     0.000000000000     0.00000000     0.00000000

---------------------
BASIS SET INFORMATION
---------------------
There are 1 groups of distinct atoms

 Group   1 Type I   : 33s27p16d contracted to 7s7p5d pattern {141411111/111111111/121111}

Atom   0I    basis set group =>   1
---------------------------------
AUXILIARY/J BASIS SET INFORMATION
---------------------------------
There are 1 groups of distinct atoms

 Group   1 Type I   : 18s contracted to 18s pattern {111111111111111111}

Atom   0I    basis set group =>   1
-------------------------
ECP PARAMETER INFORMATION
-------------------------

 Group 1, Type I  ECP (replacing 28 core electrons, lmax=4)

Atom   0I    ECP group =>   1

------------------------------------------------------------------------------
                           ORCA GTO INTEGRAL CALCULATION
------------------------------------------------------------------------------
------------------------------------------------------------------------------
                   ___                                                        
                  /   \      - P O W E R E D   B Y -                         
                 /     \                                                     
                 |  |  |   _    _      __       _____    __    __             
                 |  |  |  | |  | |    /  \     |  _  \  |  |  /  |          
                  \  \/   | |  | |   /    \    | | | |  |  | /  /          
                 / \  \   | |__| |  /  /\  \   | |_| |  |  |/  /          
                |  |  |   |  __  | /  /__\  \  |    /   |      \           
                |  |  |   | |  | | |   __   |  |    \   |  |\   \          
                \     /   | |  | | |  |  |  |  | |\  \  |  | \   \       
                 \___/    |_|  |_| |__|  |__|  |_| \__\ |__|  \__/        
                                                                              
                      - O R C A' S   B I G   F R I E N D -                    
                                      &                                       
                       - I N T E G R A L  F E E D E R -                       
                                                                              
 v1 FN, 2020, v2 2021                                                         
------------------------------------------------------------------------------


Reading SHARK input file i2_atom53.SHARKINP.tmp ... ok
----------------------
SHARK INTEGRAL PACKAGE
----------------------

Number of atoms                             ...      1
Number of basis functions                   ...     53
Number of shells                            ...     19
Maximum angular momentum                    ...      2
Integral batch strategy                     ... SHARK/LIBINT Hybrid
RI-J (if used) integral strategy            ... SPLIT-RIJ (Revised 2003 algorithm where possible)
Printlevel                                  ...      1
Contraction scheme used                     ... SEGMENTED contraction
Coulomb Range Separation                    ... NOT USED
Exchange Range Separation                   ... NOT USED
Finite Nucleus Model                        ... NOT USED
Auxiliary Coulomb fitting basis             ... AVAILABLE
   # of basis functions in Aux-J            ...     18
   # of shells in Aux-J                     ...     18
   Maximum angular momentum in Aux-J        ...      0
Auxiliary J/K fitting basis                 ... NOT available
Auxiliary Correlation fitting basis         ... NOT available
Auxiliary 'external' fitting basis          ... NOT available
Integral threshold                          ...     1.000000e-10
Primitive cut-off                           ...     1.000000e-11
Primitive pair pre-selection threshold      ...     1.000000e-11

Calculating pre-screening integrals         ... done (  0.3 sec) Dimension = 19
Organizing shell pair data                  ... done (  0.0 sec)
Shell pair information
Total number of shell pairs                 ...       190
Shell pairs after pre-screening             ...       190
Total number of primitive shell pairs       ...      3284
Primitive shell pairs kept                  ...      3284
          la=0 lb=0:     28 shell pairs
          la=1 lb=0:     49 shell pairs
          la=1 lb=1:     28 shell pairs
          la=2 lb=0:     35 shell pairs
          la=2 lb=1:     35 shell pairs
          la=2 lb=2:     15 shell pairs

Calculating one electron integrals          ... done (  0.0 sec)
Calculating ECP integrals                   ... done (  0.0 sec)
Calculating RI/J V-Matrix + Cholesky decomp.... done (  0.0 sec)
Calculating Nuclear repulsion               ... done (  0.0 sec) ENN=      0.000000000000 Eh
Calculating 4-index integrals               ... 
    -> SHARK/Ints2Disk: Thresh =     1.000000e-10 TCut=    1.000000e-11 
    -> calling libint FockFlag=2 Lmax_loc=2
    -> L=0 1 2 2:     0.084 sec done=       735 (=100.0%) skipped=         0 
    -> L=0 2 2 2:     0.105 sec done=       525 (=100.0%) skipped=         0 
    -> L=1 1 1 2:     0.121 sec done=       980 (=100.0%) skipped=         0 
    -> L=1 1 2 2:     0.099 sec done=       420 (=100.0%) skipped=         0 
    -> L=1 2 1 2:     0.133 sec done=       630 (=100.0%) skipped=         0 
    -> L=1 2 2 2:     0.191 sec done=       525 (=100.0%) skipped=         0 
    -> L=2 2 2 2:     0.138 sec done=       120 (=100.0%) skipped=         0 
    ->Total LIBINT loop time =    0.896 sec
    -> L=0 0 0 0:     0.007 sec done=       406 (=100.0%) skipped=         0 
    -> L=1 0 0 0:     0.023 sec done=      1372 (=100.0%) skipped=         0 
    -> L=1 0 1 0:     0.031 sec done=      1225 (=100.0%) skipped=         0 
    -> L=1 1 0 0:     0.022 sec done=       784 (=100.0%) skipped=         0 
    -> L=1 1 1 0:     0.060 sec done=      1372 (=100.0%) skipped=         0 
    -> L=1 1 1 1:     0.046 sec done=       406 (=100.0%) skipped=         0 
    -> L=2 0 0 0:     0.024 sec done=       980 (=100.0%) skipped=         0 
    -> L=2 0 1 0:     0.065 sec done=      1715 (=100.0%) skipped=         0 
    -> L=2 0 1 1:     0.083 sec done=       980 (=100.0%) skipped=         0 
    -> L=2 0 2 0:     0.046 sec done=       630 (=100.0%) skipped=         0 
    -> L=2 1 0 0:     0.031 sec done=       980 (=100.0%) skipped=         0 
    -> L=2 1 1 0:     0.093 sec done=      1715 (=100.0%) skipped=         0 
    -> L=2 1 2 0:     0.122 sec done=      1225 (=100.0%) skipped=         0 
    -> L=2 2 0 0:     0.024 sec done=       420 (=100.0%) skipped=         0 
    ->Total SHARK integral loop time =    0.675 sec
    -> Total Integral generation matrix time =    1.580 sec
    -> Number of small integrals   =         0
    -> Number of medium integrals  =         0
    -> Number of large integrals   =    122063
    -> Number of MB stored         =         1 MB


SHARK setup successfully completed in   2.2 seconds

Maximum memory used throughout the entire GTOINT-calculation: 79.7 MB
-------------------------------------------------------------------------------
                                 ORCA SCF
-------------------------------------------------------------------------------

------------
SCF SETTINGS
------------
Hamiltonian:
 Ab initio Hamiltonian  Method          .... Hartree-Fock(GTOs)


General Settings:
 Integral files         IntName         .... i2_atom53
 Hartree-Fock type      HFTyp           .... ROHF
 Total Charge           Charge          ....    0
 Multiplicity           Mult            ....    2
 Number of Electrons    NEL             ....   25
 Basis Dimension        Dim             ....   53
 Nuclear Repulsion      ENuc            ....      0.0000000000 Eh

Convergence Acceleration:
 DIIS                   CNVDIIS         .... on
   Start iteration      DIISMaxIt       ....    12
   Startup error        DIISStart       ....  0.200000
   # of expansion vecs  DIISMaxEq       ....     5
   Bias factor          DIISBfac        ....   1.050
   Max. coefficient     DIISMaxC        ....  10.000
 Trust-Rad. Augm. Hess. CNVTRAH         .... off
 SOSCF                  CNVSOSCF        .... off
 Level Shifting         CNVShift        .... on
   Level shift para.    LevelShift      ....    1.0000
   Turn off err/grad.   ShiftErr        ....    0.0010
 Zerner damping         CNVZerner       .... off
 Static damping         CNVDamp         .... on
   Fraction old density DampFac         ....    0.7000
   Max. Damping (<1)    DampMax         ....    0.9800
   Min. Damping (>=0)   DampMin         ....    0.0000
   Turn off err/grad.   DampErr         ....    0.1000
 Fernandez-Rico         CNVRico         .... off

SCF Procedure:
 Maximum # iterations   MaxIter         ....  1000
 SCF integral mode      SCFMode         .... Conventional
 Integral Threshold     Thresh          ....  1.000e-10 Eh
 Primitive CutOff       TCut            ....  1.000e-11 Eh
 Integral Buffer length BufferLength    .... 1048576
 Integral index format  IndFormat       ....     0
 Integral value format  ValFormat       ....     0
 Integral Storage       Thresh          ....  1.000e-10 Eh

Convergence Tolerance:
 Convergence Check Mode ConvCheckMode   .... Total+1el-Energy
 Convergence forced     ConvForced      .... 0
 Energy Change          TolE            ....  1.000e-06 Eh
 1-El. energy change                    ....  1.000e-03 Eh
 DIIS Error             TolErr          ....  1.000e-06


Diagonalization of the overlap matrix:
Smallest eigenvalue                        ... 1.515e-04
Time for diagonalization                   ...    0.001 sec
Threshold for overlap eigenvalues          ... 1.000e-08
Number of eigenvalues below threshold      ... 0
Time for construction of square roots      ...    0.002 sec
Total time needed                          ...    0.003 sec

--------------------
INITIAL GUESS: HCORE
--------------------
AVERAGE-CONFIGURATION (SAHF) CASE FOUND

-------------------
FINAL ROHF SETTINGS
-------------------
Number of operators             ... 2
  operator   0:  10 orbitals  20 electrons n(mue)= 2.000
  operator   1:   3 orbitals   5 electrons n(mue)= 1.667
Vector coupling coefficients a and b (Zerner convention):
   1.000    1.000           1.000    1.000 
   1.000    0.960           1.000    0.960 

                      -----------------
                      INTIAL GUESS DONE 
                      -----------------

 InCore treatment chosen:
   Memory dedicated               ...    1024 MB
   Memory needed                  ...      1 MB
   Number of tiny    integrals    ...       0
   Number of small   integrals    ...       0
   Number of regular integrals    ...  122063

--------------
SCF ITERATIONS
--------------
ITER       Energy         Delta-E        Max-DP      RMS-DP      [F,P]     Damp
  0   -268.5084312190   0.00000000000022.67966523  0.90083321  2.8541515 0.7000
  1   -285.7672815565 -17.25885033755515.88309123  0.63571820  0.9902979 0.7000
                            ****Activating DIIS****
  2   -288.2865230774  -2.51924152087311.09866742  0.44582199  0.1725952 0.7000
  3   -289.3551653565  -1.068642279110 7.73950844  0.31160635  0.1816628 0.7000
  4   -290.3213458989  -0.966180542329 5.45120977  0.21868032  0.2358046 0.7000
  5   -290.4665606320  -0.145214733121 3.81943457  0.15314363  0.2523952 0.7000
  6   -290.5324469981  -0.065886366108 2.66247839  0.10737624  0.3516275 0.7000
  7   -291.1439012050  -0.611454206915 1.86522393  0.07513019  0.3027224 0.7000
  8   -291.2575655718  -0.113664366808 1.25986765  0.05220842  0.3722327 0.7000
  9   -292.1451814163  -0.887615844502 0.91845662  0.03538366  0.3345826 0.7000
 10   -293.0166049555  -0.871423539213 0.64821366  0.02286708  0.3029663 0.7000
 11   -293.7968941046  -0.780289149057 0.45314928  0.01600198  0.1685917 0.7000
 12   -294.1097657851  -0.312871680518 1.05597208  0.03962450  0.0613452 0.0000
 13   -294.5776816771  -0.467915892010 0.00574288  0.00014092  0.1023904 0.7000
 14   -294.5747068368   0.002974840345 0.00819816  0.00019840  0.1057659 0.7000
 15   -294.5717406614   0.002966175316 0.01740478  0.00050985  0.1082475 0.7000
 16   -294.5630149797   0.008725681793 0.04156313  0.00121621  0.1152064 0.7000
 17   -294.5897994939  -0.026784514257 0.41529676  0.01250100  0.0862062 0.0000
 18   -294.6308198659  -0.041020371983 0.08302778  0.00250399  0.0294630 0.0000
 19   -294.6420258266  -0.011205960731 0.05940142  0.00208464  0.0257126 0.0000
 20   -294.6523327914  -0.010306964812 0.04377310  0.00139013  0.0103348 0.0000
 21   -294.6552752697  -0.002942478290 0.01635078  0.00056726  0.0042679 0.0000
 22   -294.6556148949  -0.000339625195 0.01126556  0.00031683  0.0028308 0.0000
 23   -294.6556787989  -0.000063904017 0.00399602  0.00008175  0.0015180 0.0000
 24   -294.6556907967  -0.000011997786 0.00273281  0.00005720  0.0008644 0.0000
 25   -294.6556964022  -0.000005605482 0.00288418  0.00007277  0.0005184 0.0000
 26   -294.6556986105  -0.000002208268 0.00094300  0.00002299  0.0002616 0.0000
                 **** Energy Check signals convergence ****

               *****************************************************
               *                     SUCCESS                       *
               *           SCF CONVERGED AFTER  27 CYCLES          *
               *****************************************************


----------------
TOTAL SCF ENERGY
----------------

Total Energy       :         -294.65569892 Eh           -8017.98919 eV

Components:
Nuclear Repulsion  :            0.00000000 Eh               0.00000 eV
Electronic Energy  :         -294.65569892 Eh           -8017.98919 eV
One Electron Energy:         -513.65066681 Eh          -13977.14523 eV
Two Electron Energy:          218.99496788 Eh            5959.15603 eV

Virial components:
Potential Energy   :         -405.44638728 Eh          -11032.75709 eV
Kinetic Energy     :          110.79068836 Eh            3014.76790 eV
Virial Ratio       :            3.65957097


---------------
SCF CONVERGENCE
---------------

  Last Energy change         ...   -3.1335e-07  Tolerance :   1.0000e-06
  Last MAX-Density change    ...    6.1957e-04  Tolerance :   1.0000e-05
  Last RMS-Density change    ...    1.3274e-05  Tolerance :   1.0000e-06
  Last DIIS Error            ...    2.7514e-04  Tolerance :   1.0000e-06

             **** THE GBW FILE WAS UPDATED (i2_atom53.gbw) ****
             **** DENSITY i2_atom53.scfp WAS UPDATED ****
             **** ENERGY FILE WAS UPDATED (i2_atom53.en.tmp) ****
             **** THE GBW FILE WAS UPDATED (i2_atom53.gbw) ****
             **** DENSITY i2_atom53.scfp WAS UPDATED ****
----------------
ORBITAL ENERGIES
----------------

  NO   OCC          E(Eh)            E(eV) 
   0   2.0000      -7.745864      -210.7757 
   1   2.0000      -5.570725      -151.5871 
   2   2.0000      -5.570725      -151.5871 
   3   2.0000      -5.570725      -151.5871 
   4   2.0000      -2.298191       -62.5369 
   5   2.0000      -2.298191       -62.5369 
   6   2.0000      -2.298191       -62.5369 
   7   2.0000      -2.298191       -62.5369 
   8   2.0000      -2.298191       -62.5369 
   9   2.0000      -0.876341       -23.8464 
  10   1.6667      -0.401740       -10.9319 
  11   1.6667      -0.401740       -10.9319 
  12   1.6667      -0.401740       -10.9319 
  13   0.0000       0.024012         0.6534 
  14   0.0000       0.037670         1.0251 
  15   0.0000       0.037670         1.0251 
  16   0.0000       0.037670         1.0251 
  17   0.0000       0.193534         5.2663 
  18   0.0000       0.193534         5.2663 
  19   0.0000       0.193534         5.2663 
  20   0.0000       0.193534         5.2663 
  21   0.0000       0.193534         5.2663 
  22   0.0000       0.254829         6.9343 
  23   0.0000       0.254829         6.9343 
  24   0.0000       0.254829         6.9343 
  25   0.0000       0.282638         7.6910 
  26   0.0000       0.669068        18.2063 
  27   0.0000       0.669068        18.2063 
  28   0.0000       0.669068        18.2063 
  29   0.0000       0.669068        18.2063 
  30   0.0000       0.669068        18.2063 
  31   0.0000       0.972168        26.4540 
  32   0.0000       0.972168        26.4540 
  33   0.0000       0.972168        26.4540 
  34   0.0000       1.112503        30.2727 
  35   0.0000       1.939084        52.7652 
  36   0.0000       1.939084        52.7652 
  37   0.0000       1.939084        52.7652 
  38   0.0000       1.939084        52.7652 
  39   0.0000       1.939084        52.7652 
  40   0.0000       3.375409        91.8495 
  41   0.0000       3.375409        91.8495 
  42   0.0000       3.375409        91.8495 
  43   0.0000       3.643650        99.1488 
  44   0.0000      11.290775       307.2376 
  45   0.0000      11.290775       307.2376 
  46   0.0000      11.290775       307.2376 
  47   0.0000      11.290775       307.2376 
  48   0.0000      11.290775       307.2376 
  49   0.0000      38.632438      1051.2421 
  50   0.0000      38.632438      1051.2421 
  51   0.0000      38.632438      1051.2421 
  52   0.0000      60.790597      1654.1962 

Warning: MO coefficients are modified such that the real solid harmonic m components
have the correct order within each shell (0, +1, -1, +2, -2, ...) and all s orbitals
come before all p orbitals etc. (with increasing orbital energy within each block of given angular momentum).

--------------------------
ATOM BASIS FOR ELEMENT I 
--------------------------
 NewGTO I 
 S 33
    1      16900.000000000000         0.000040001483
    2       2541.390000000000         0.000294010798
    3        574.413000000000         0.001214044602
    4        150.945000000000         0.002596095532
    5         29.163100000000        -0.053624972278
    6         18.219600000000         0.343929649534
    7         11.336500000000        -0.367440514239
    8          6.924080000000        -0.538923821207
    9          2.509810000000         0.709593098301
   10          1.351130000000         0.628084100513
   11          0.616379000000         0.091845378038
   12          0.383455000000        -0.012243450342
   13          0.180056000000         0.002875105775
   14          0.082327000000        -0.000289010613
   15      16900.000000000000        -0.000000001646
   16       2541.390000000000        -0.000000012303
   17        574.413000000000        -0.000000051292
   18        150.945000000000        -0.000000107696
   19         29.163100000000         0.000001968589
   20         18.219600000000        -0.000013664110
   21         11.336500000000         0.000017336338
   22          6.924080000000         0.000018727805
   23          2.509810000000        -0.000035821113
   24          1.351130000000        -0.000046317424
   25          0.616379000000        -0.000008001547
   26          0.383455000000         0.000050985513
   27          0.180056000000         0.000053655641
   28          0.082327000000         0.000013117487
   29          0.616379000000         0.000217628667
   30          0.383455000000        -0.000414197963
   31          0.180056000000         0.000303803527
   32          0.082327000000        -0.000297409546
   33          0.033100000000         0.000122115847
 S 31
    1      16900.000000000000        -0.000000004109
    2       2541.390000000000        -0.000000030198
    3        574.413000000000        -0.000000124694
    4        150.945000000000        -0.000000266644
    5         29.163100000000         0.000005507801
    6         18.219600000000        -0.000035324890
    7         11.336500000000         0.000037739682
    8          6.924080000000         0.000055352670
    9          2.509810000000        -0.000072882050
   10          1.351130000000        -0.000064510290
   11          0.616379000000        -0.000009433405
   12          0.383455000000         0.000001257520
   13      16900.000000000000         0.000019006623
   14       2541.390000000000         0.000142049495
   15        574.413000000000         0.000592206144
   16        150.945000000000         0.001243432852
   17         29.163100000000        -0.022728912792
   18         18.219600000000         0.157762922928
   19         11.336500000000        -0.200161683433
   20          6.924080000000        -0.216227276508
   21          2.509810000000         0.413582983048
   22          1.351130000000         0.534771173050
   23          0.616379000000         0.092384162243
   24          0.383455000000        -0.588667936434
   25          0.180056000000        -0.619496668965
   26          0.082327000000        -0.151451725802
   27          0.616379000000        -0.000910038756
   28          0.383455000000         0.001975757025
   29          0.180056000000        -0.002182990400
   30          0.082327000000         0.002016297427
   31          0.033100000000        -0.000565081595
 S 33
    1      16900.000000000000        -0.000001057010
    2       2541.390000000000        -0.000007769021
    3        574.413000000000        -0.000032080245
    4        150.945000000000        -0.000068599935
    5         29.163100000000         0.001417000868
    6         18.219600000000        -0.009088090702
    7         11.336500000000         0.009709348192
    8          6.924080000000         0.014240669786
    9          2.509810000000        -0.018750481232
   10          1.351130000000        -0.016596665282
   11          0.616379000000        -0.002426947276
   12          0.383455000000         0.000323524265
   13          0.180056000000        -0.000075972578
   14          0.082327000000         0.000007636895
   15      16900.000000000000        -0.000002847347
   16       2541.390000000000        -0.000021280176
   17        574.413000000000        -0.000088717322
   18        150.945000000000        -0.000186276406
   19         29.163100000000         0.003404976943
   20         18.219600000000        -0.023634175550
   21         11.336500000000         0.029985856479
   22          6.924080000000         0.032392613656
   23          2.509810000000        -0.061958111858
   24          1.351130000000        -0.080113093421
   25          0.616379000000        -0.013839902735
   26          0.383455000000         0.088187269176
   27          0.180056000000         0.092805665331
   28          0.082327000000         0.022688706627
   29          0.616379000000        -0.374753314380
   30          0.383455000000         0.860313232574
   31          0.180056000000        -1.113907589571
   32          0.082327000000         2.018243449501
   33          0.033100000000        -2.099450157145
 S 33
    1      16900.000000000000        -0.000008050138
    2       2541.390000000000        -0.000059168498
    3        574.413000000000        -0.000244321622
    4        150.945000000000        -0.000522453846
    5         29.163100000000         0.010791811271
    6         18.219600000000        -0.069214466892
    7         11.336500000000         0.073945934414
    8          6.924080000000         0.108456264328
    9          2.509810000000        -0.142802773984
   10          1.351130000000        -0.126399414064
   11          0.616379000000        -0.018483515120
   12          0.383455000000         0.002463945430
   13          0.180056000000        -0.000578603542
   14          0.082327000000         0.000058162230
   15      16900.000000000000         0.000018775810
   16       2541.390000000000         0.000140324477
   17        574.413000000000         0.000585014522
   18        150.945000000000         0.001228332875
   19         29.163100000000        -0.022452897836
   20         18.219600000000         0.155847084430
   21         11.336500000000        -0.197730963643
   22          6.924080000000        -0.213601459662
   23          2.509810000000         0.408560521582
   24          1.351130000000         0.528277028660
   25          0.616379000000         0.091262269144
   26          0.383455000000        -0.581519281513
   27          0.180056000000        -0.611973636647
   28          0.082327000000        -0.149612529104
   29          0.616379000000        -1.442595117866
   30          0.383455000000         3.303969682285
   31          0.180056000000        -5.031551656227
   32          0.082327000000         6.137726947290
   33          0.033100000000        -2.173801628414
 S 33
    1      16900.000000000000        -0.000013973241
    2       2541.390000000000        -0.000102703283
    3        574.413000000000        -0.000424087711
    4        150.945000000000        -0.000906863068
    5         29.163100000000         0.018732171554
    6         18.219600000000        -0.120140839683
    7         11.336500000000         0.128353609449
    8          6.924080000000         0.188255826425
    9          2.509810000000        -0.247873688060
   10          1.351130000000        -0.219401122670
   11          0.616379000000        -0.032083249739
   12          0.383455000000         0.004276858383
   13          0.180056000000        -0.001004326386
   14          0.082327000000         0.000100956628
   15      16900.000000000000        -0.000000477625
   16       2541.390000000000        -0.000003569617
   17        574.413000000000        -0.000014881779
   18        150.945000000000        -0.000031246710
   19         29.163100000000         0.000571163725
   20         18.219600000000        -0.003964486094
   21         11.336500000000         0.005029941102
   22          6.924080000000         0.005433659664
   23          2.509810000000        -0.010393088277
   24          1.351130000000        -0.013438473625
   25          0.616379000000        -0.002321557687
   26          0.383455000000         0.014792866438
   27          0.180056000000         0.015567573696
   28          0.082327000000         0.003805889557
   29          0.616379000000        -5.211381240334
   30          0.383455000000        12.095945926787
   31          0.180056000000       -11.079358042540
   32          0.082327000000         5.673478715786
   33          0.033100000000        -1.339061483159
 S 33
    1      16900.000000000000        -0.000129537556
    2       2541.390000000000        -0.000952100715
    3        574.413000000000        -0.003931463541
    4        150.945000000000        -0.008406985142
    5         29.163100000000         0.173654759438
    6         18.219600000000        -1.113753872795
    7         11.336500000000         1.189889549532
    8          6.924080000000         1.745207177756
    9          2.509810000000        -2.297888717680
   10          1.351130000000        -2.033936592365
   11          0.616379000000        -0.297424620490
   12          0.383455000000         0.039648196232
   13          0.180056000000        -0.009310509274
   14          0.082327000000         0.000935908521
   15      16900.000000000000         0.000180665602
   16       2541.390000000000         0.001350237660
   17        574.413000000000         0.005629157920
   18        150.945000000000         0.011819330079
   19         29.163100000000        -0.216047470605
   20         18.219600000000         1.499600124577
   21         11.336500000000        -1.902617420125
   22          6.924080000000        -2.055327353036
   23          2.509810000000         3.931272832625
   24          1.351130000000         5.083215389549
   25          0.616379000000         0.878148671680
   26          0.383455000000        -5.595525833499
   27          0.180056000000        -5.888565353100
   28          0.082327000000        -1.439609653933
   29          0.616379000000       -17.317908876845
   30          0.383455000000        25.000825937563
   31          0.180056000000        -3.552421014135
   32          0.082327000000         5.033634536710
   33          0.033100000000        -0.768527800020
 S 33
    1      16900.000000000000         0.000233748860
    2       2541.390000000000         0.001718053539
    3        574.413000000000         0.007094275572
    4        150.945000000000         0.015170296941
    5         29.163100000000        -0.313357787785
    6         18.219600000000         2.009754589196
    7         11.336500000000        -2.147140442085
    8          6.924080000000        -3.149203985070
    9          2.509810000000         4.146510740501
   10          1.351130000000         3.670212513274
   11          0.616379000000         0.536698915775
   12          0.383455000000        -0.071544661956
   13          0.180056000000         0.016800694657
   14          0.082327000000        -0.001688834931
   15      16900.000000000000        -0.000113442620
   16       2541.390000000000        -0.000847834315
   17        574.413000000000        -0.003534632007
   18        150.945000000000        -0.007421533201
   19         29.163100000000         0.135659421077
   20         18.219600000000        -0.941621228781
   21         11.336500000000         1.194681784615
   22          6.924080000000         1.290570623458
   23          2.509810000000        -2.468504699794
   24          1.351130000000        -3.191826569511
   25          0.616379000000        -0.551402615756
   26          0.383455000000         3.513513919254
   27          0.180056000000         3.697517793357
   28          0.082327000000         0.903952319746
   29          0.616379000000        -3.607970551685
   30          0.383455000000         0.444954085918
   31          0.180056000000        -5.532919495107
   32          0.082327000000        -0.187552842008
   33          0.033100000000        -0.160429332173
 P 27
    1        649.159000000000        -0.000095000099
    2        148.087000000000        -0.000629000392
    3         20.101800000000        -0.045324027437
    4         10.446600000000         0.230231139438
    5          6.358830000000         0.004960003038
    6          3.048460000000        -0.513927311311
    7          1.559500000000        -0.506093306509
    8          0.768911000000        -0.131659079763
    9          0.354814000000        -0.006125003724
   10          0.154766000000        -0.001746001078
   11          0.064699000000        -0.000092000099
   12        649.159000000000        -0.000000001138
   13        148.087000000000        -0.000000008994
   14         20.101800000000        -0.000000572284
   15         10.446600000000         0.000003196303
   16          6.358830000000        -0.000000556536
   17          3.048460000000        -0.000007386692
   18          1.559500000000        -0.000008819287
   19          0.768911000000         0.000001433875
   20          0.354814000000         0.000016053434
   21          0.154766000000         0.000017886323
   22          0.064699000000         0.000006240204
   23          0.768911000000        -0.000033494551
   24          0.354814000000         0.000080334406
   25          0.154766000000        -0.000095010927
   26          0.064699000000         0.000126403806
   27          0.025700000000        -0.000081544129
 P 25
    1        649.159000000000         0.000000010768
    2        148.087000000000         0.000000071298
    3         20.101800000000         0.000005137531
    4         10.446600000000        -0.000026096966
    5          6.358830000000        -0.000000562222
    6          3.048460000000         0.000058254255
    7          1.559500000000         0.000057366262
    8          0.768911000000         0.000014923709
    9          0.354814000000         0.000000694276
   10        649.159000000000        -0.000032005797
   11        148.087000000000        -0.000253045935
   12         20.101800000000        -0.016100922026
   13         10.446600000000         0.089926319924
   14          6.358830000000        -0.015657841569
   15          3.048460000000        -0.207820715521
   16          1.559500000000        -0.248126030188
   17          0.768911000000         0.040341321189
   18          0.354814000000         0.451654966921
   19          0.154766000000         0.503222325429
   20          0.064699000000         0.175564861685
   21          0.768911000000         0.000285944547
   22          0.354814000000        -0.001013315625
   23          0.154766000000         0.001696759181
   24          0.064699000000        -0.002669575357
   25          0.025700000000         0.002198770345
 P 26
    1        649.159000000000        -0.000000678028
    2        148.087000000000        -0.000004489260
    3         20.101800000000        -0.000323483667
    4         10.446600000000         0.001643190542
    5          6.358830000000         0.000035400207
    6          3.048460000000        -0.003667968196
    7          1.559500000000        -0.003612055853
    8          0.768911000000        -0.000939668523
    9          0.354814000000        -0.000043714974
   10          0.154766000000        -0.000012461444
   11        649.159000000000        -0.000004523981
   12        148.087000000000        -0.000035767742
   13         20.101800000000        -0.002275846198
   14         10.446600000000         0.012710978475
   15          6.358830000000        -0.002213217302
   16          3.048460000000        -0.029375211215
   17          1.559500000000        -0.035072319554
   18          0.768911000000         0.005702197818
   19          0.354814000000         0.063840892937
   20          0.154766000000         0.071129877792
   21          0.064699000000         0.024815884601
   22          0.768911000000        -0.044495019024
   23          0.354814000000         0.163111222237
   24          0.154766000000        -0.306904793746
   25          0.064699000000         0.881267540132
   26          0.025700000000        -1.507660673294
 P 27
    1        649.159000000000         0.000005738173
    2        148.087000000000         0.000037992729
    3         20.101800000000         0.002737650902
    4         10.446600000000        -0.013906365391
    5          6.358830000000        -0.000299592899
    6          3.048460000000         0.031042112691
    7          1.559500000000         0.030568925035
    8          0.768911000000         0.007952439773
    9          0.354814000000         0.000369960988
   10          0.154766000000         0.000105461533
   11          0.064699000000         0.000005556968
   12        649.159000000000        -0.000023554215
   13        148.087000000000        -0.000186225589
   14         20.101800000000        -0.011849246615
   15         10.446600000000         0.066180007596
   16          6.358830000000        -0.011523167799
   17          3.048460000000        -0.152942726261
   18          1.559500000000        -0.182604854469
   19          0.768911000000         0.029688626700
   20          0.354814000000         0.332389106626
   21          0.154766000000         0.370339377255
   22          0.064699000000         0.129204485292
   23          0.768911000000         0.181699300614
   24          0.354814000000        -0.656295603486
   25          0.154766000000         1.545320291918
   26          0.064699000000        -2.991880379284
   27          0.025700000000         1.208151509092
 P 27
    1        649.159000000000        -0.000005393168
    2        148.087000000000        -0.000035708437
    3         20.101800000000        -0.002573051141
    4         10.446600000000         0.013070252789
    5          6.358830000000         0.000281580040
    6          3.048460000000        -0.029175722670
    7          1.559500000000        -0.028730985162
    8          0.768911000000        -0.007474303688
    9          0.354814000000        -0.000347717286
   10          0.154766000000        -0.000099120716
   11          0.064699000000        -0.000005222858
   12        649.159000000000        -0.000022909992
   13        148.087000000000        -0.000181132196
   14         20.101800000000        -0.011525161896
   15         10.446600000000         0.064369940687
   16          6.358830000000        -0.011208001550
   17          3.048460000000        -0.148759641703
   18          1.559500000000        -0.177610491117
   19          0.768911000000         0.028876623155
   20          0.354814000000         0.323298045069
   21          0.154766000000         0.360210350735
   22          0.064699000000         0.125670657300
   23          0.768911000000        -0.699646747017
   24          0.354814000000         2.946478561825
   25          0.154766000000        -4.299684148493
   26          0.064699000000         2.080772664288
   27          0.025700000000        -0.649585457838
 P 27
    1        649.159000000000         0.000163107689
    2        148.087000000000         0.001079944146
    3         20.101800000000         0.077817786302
    4         10.446600000000        -0.395288738050
    5          6.358830000000        -0.008515934667
    6          3.048460000000         0.882372726964
    7          1.559500000000         0.868922357566
    8          0.768911000000         0.226048273138
    9          0.354814000000         0.010516149112
   10          0.154766000000         0.002997746372
   11          0.064699000000         0.000157956926
   12        649.159000000000        -0.000259761721
   13        148.087000000000        -0.002053741915
   14         20.101800000000        -0.130676425999
   15         10.446600000000         0.729849512459
   16          6.358830000000        -0.127080348057
   17          3.048460000000        -1.686690259644
   18          1.559500000000        -2.013811554993
   19          0.768911000000         0.327413527284
   20          0.354814000000         3.665669380058
   21          0.154766000000         4.084194362482
   22          0.064699000000         1.424899059742
   23          0.768911000000         3.788975702985
   24          0.354814000000        -8.176517821550
   25          0.154766000000        -1.405898209495
   26          0.064699000000        -2.586244518395
   27          0.025700000000         0.326528775887
 P 27
    1        649.159000000000        -0.002726556261
    2        148.087000000000        -0.018052664982
    3         20.101800000000        -1.300825075959
    4         10.446600000000         6.607763175207
    5          6.358830000000         0.142354876520
    6          3.048460000000       -14.750002848034
    7          1.559500000000       -14.525162504649
    8          0.768911000000        -3.778689629325
    9          0.354814000000        -0.175791051347
   10          0.154766000000        -0.050111212832
   11          0.064699000000        -0.002640454575
   12        649.159000000000         0.001967270672
   13        148.087000000000         0.015553739897
   14         20.101800000000         0.989660446605
   15         10.446600000000        -5.527417733761
   16          6.358830000000         0.962426030946
   17          3.048460000000        12.773923244962
   18          1.559500000000        15.251332653523
   19          0.768911000000        -2.479622588067
   20          0.354814000000       -27.761457110770
   21          0.154766000000       -30.931100126732
   22          0.064699000000       -10.791282582494
   23          0.768911000000         6.597194667302
   24          0.354814000000        27.447824790187
   25          0.154766000000        31.293276977731
   26          0.064699000000        10.648669536107
   27          0.025700000000         0.043101964344
 D 15
    1        585.445000000000         0.000024999946
    2        177.468000000000         0.000230999397
    3         69.219300000000         0.001172996845
    4         28.639200000000         0.005583985136
    5         12.715300000000        -0.023829936489
    6          5.479270000000         0.116813688434
    7          3.354930000000         0.272730272686
    8          1.984230000000         0.340173092769
    9          1.152540000000         0.268698283369
   10          0.651017000000         0.129808653826
   11          0.347445000000         0.033043911917
   12          0.154700000000         0.003066991819
   13          1.954400000000         0.000003589852
   14          0.225300000000        -0.000008278668
   15          0.111800000000         0.000008838525
 D 16
    1        585.445000000000         0.000004483741
    2        177.468000000000         0.000041429749
    3         69.219300000000         0.000210377018
    4         28.639200000000         0.001001487897
    5         12.715300000000        -0.004273899804
    6          5.479270000000         0.020950538425
    7          3.354930000000         0.048914182355
    8          1.984230000000         0.061010054103
    9          1.152540000000         0.048191044954
   10          0.651017000000         0.023281185847
   11          0.347445000000         0.005926426566
   12          0.154700000000         0.000550065072
   13          1.954400000000        -0.003545079350
   14          0.454300000000        -0.251363241507
   15          0.225300000000         0.410224710783
   16          0.111800000000        -1.226556932336
 D 16
    1        585.445000000000         0.000008153283
    2        177.468000000000         0.000075336303
    3         69.219300000000         0.000382551847
    4         28.639200000000         0.001821116431
    5         12.715300000000        -0.007771705661
    6          5.479270000000         0.038096685824
    7          3.354930000000         0.088946078603
    8          1.984230000000         0.110941342704
    9          1.152540000000         0.087631117725
   10          0.651017000000         0.042334760321
   11          0.347445000000         0.010776678210
   12          0.154700000000         0.001000244281
   13          1.954400000000        -0.045999553501
   14          0.454300000000         0.261478089236
   15          0.225300000000        -2.094670604491
   16          0.111800000000         1.461699692868
 D 16
    1        585.445000000000         0.000019818323
    2        177.468000000000         0.000183121224
    3         69.219300000000         0.000929875233
    4         28.639200000000         0.004426618455
    5         12.715300000000        -0.018890816161
    6          5.479270000000         0.092602257430
    7          3.354930000000         0.216202734960
    8          1.984230000000         0.269666994765
    9          1.152540000000         0.213006437355
   10          0.651017000000         0.102903816662
   11          0.347445000000         0.026195053670
   12          0.154700000000         0.002431310660
   13          1.954400000000        -0.019846128333
   14          0.454300000000        -2.579699283836
   15          0.225300000000         2.725439472129
   16          0.111800000000        -1.058016593403
 D 16
    1        585.445000000000        -0.000170216201
    2        177.468000000000        -0.001572797015
    3         69.219300000000        -0.007986540056
    4         28.639200000000        -0.038019472227
    5         12.715300000000         0.162250003622
    6          5.479270000000        -0.795345022434
    7          3.354930000000        -1.856928479497
    8          1.984230000000        -2.316123904033
    9          1.152540000000        -1.829476023569
   10          0.651017000000        -0.883823360715
   11          0.347445000000        -0.224984855949
   12          0.154700000000        -0.020882113301
   13          1.954400000000         6.332831499959
   14          0.454300000000         1.152381186682
   15          0.225300000000        -0.066072081971
   16          0.111800000000         0.004693362914
 end
-------------------------------------------
RADIAL EXPECTATION VALUES <R**-3> TO <R**3>
-------------------------------------------
   0 :     0.000000     2.313658     1.439895     0.761319     0.633473     0.575044
   1 :     0.000000     0.479393     0.592186     2.016381     4.607763    11.748610
   2 :     0.000000     0.045317     0.177850     6.336011    42.959850   307.558341
   3 :     0.000000     0.134588     0.272412     4.941283    29.550478   204.191121
   4 :     0.000000     0.297956     0.424690     3.335525    14.747950    83.032525
   5 :     0.000000     1.082931     0.819115     1.986095     6.215926    29.002998
   6 :     0.000000    22.946141     3.969821     0.375239     0.350886     1.186169
   7 :     3.585060     2.074194     1.363595     0.812648     0.729383     0.721612
   8 :     3.585060     2.074194     1.363595     0.812648     0.729383     0.721612
   9 :     3.585060     2.074194     1.363595     0.812648     0.729383     0.721612
  10 :     0.377179     0.332798     0.488823     2.480271     7.085154    22.993446
  11 :     0.377179     0.332798     0.488823     2.480271     7.085154    22.993446
  12 :     0.377179     0.332798     0.488823     2.480271     7.085154    22.993446
  13 :     0.012940     0.025515     0.136803     8.053572    68.625303   612.871898
  14 :     0.012940     0.025515     0.136803     8.053572    68.625303   612.871898
  15 :     0.012940     0.025515     0.136803     8.053572    68.625303   612.871898
  16 :     0.099863     0.099755     0.237431     5.582747    37.637323   296.717949
  17 :     0.099863     0.099755     0.237431     5.582747    37.637323   296.717949
  18 :     0.099863     0.099755     0.237431     5.582747    37.637323   296.717949
  19 :     0.336350     0.278256     0.413578     3.462268    16.270803   101.043239
  20 :     0.336350     0.278256     0.413578     3.462268    16.270803   101.043239
  21 :     0.336350     0.278256     0.413578     3.462268    16.270803   101.043239
  22 :     1.802989     1.019536     0.814982     1.934799     5.940966    28.857265
  23 :     1.802989     1.019536     0.814982     1.934799     5.940966    28.857265
  24 :     1.802989     1.019536     0.814982     1.934799     5.940966    28.857265
  25 :    47.703504    10.841598     3.003024     0.428362     0.301601     0.606729
  26 :    47.703504    10.841598     3.003024     0.428362     0.301601     0.606729
  27 :    47.703504    10.841598     3.003024     0.428362     0.301601     0.606729
  28 :     2.937119     1.747148     1.228107     0.934493     0.997292     6.058026
  29 :     2.937119     1.747148     1.228107     0.934493     0.997292     6.058026
  30 :     2.937119     1.747148     1.228107     0.934493     0.997292     6.058026
  31 :     2.937119     1.747148     1.228107     0.934493     0.997292     6.058026
  32 :     2.937119     1.747148     1.228107     0.934493     0.997292     6.058026
  33 :     0.085146     0.108531     0.282509     4.008751    17.322239   396.715943
  34 :     0.085146     0.108531     0.282509     4.008751    17.322239   396.715943
  35 :     0.085146     0.108531     0.282509     4.008751    17.322239   396.715943
  36 :     0.085146     0.108531     0.282509     4.008751    17.322239   396.715943
  37 :     0.085146     0.108531     0.282509     4.008751    17.322239   396.715943
  38 :     0.232537     0.219611     0.382947     3.343810    13.421592   308.750061
  39 :     0.232537     0.219611     0.382947     3.343810    13.421592   308.750061
  40 :     0.232537     0.219611     0.382947     3.343810    13.421592   308.750061
  41 :     0.232537     0.219611     0.382947     3.343810    13.421592   308.750061
  42 :     0.232537     0.219611     0.382947     3.343810    13.421592   308.750061
  43 :     0.988864     0.624795     0.620903     2.380362     7.577793   149.831431
  44 :     0.988864     0.624795     0.620903     2.380362     7.577793   149.831431
  45 :     0.988864     0.624795     0.620903     2.380362     7.577793   149.831431
  46 :     0.988864     0.624795     0.620903     2.380362     7.577793   149.831431
  47 :     0.988864     0.624795     0.620903     2.380362     7.577793   149.831431
  48 :     7.300172     2.958809     1.519016     0.858338     0.948243     6.550634
  49 :     7.300172     2.958809     1.519016     0.858338     0.948243     6.550634
  50 :     7.300172     2.958809     1.519016     0.858338     0.948243     6.550634
  51 :     7.300172     2.958809     1.519016     0.858338     0.948243     6.550634
  52 :     7.300172     2.958809     1.519016     0.858338     0.948243     6.550634
Making the total density                ... o.k.
o.k.
Initializing the integrals              ... done
Making exponents                        ... done
Making rho(0)                           ... done (         0.275491847)
Integral calculation                    ... Two index integrals                     ... done
Solving the equation system             ... done
atomic density will be written to file i2_atom53.adf

-------
TIMINGS
-------

Total SCF time: 0 days 0 hours 0 min 1 sec 

Total time                  ....       1.228 sec
Sum of individual times     ....       0.346 sec  ( 28.2%)

Fock matrix formation       ....       0.212 sec  ( 17.2%)
Diagonalization             ....       0.054 sec  (  4.4%)
Density matrix formation    ....       0.001 sec  (  0.1%)
Population analysis         ....       0.000 sec  (  0.0%)
Initial guess               ....       0.002 sec  (  0.1%)
Orbital Transformation      ....       0.000 sec  (  0.0%)
Orbital Orthonormalization  ....       0.000 sec  (  0.0%)
DIIS solution               ....       0.078 sec  (  6.3%)

Maximum memory used throughout the entire SCF-calculation: 250.6 MB

-------------------------   --------------------
FINAL SINGLE POINT ENERGY      -294.655698923826
-------------------------   --------------------


                            ***************************************
                            *     ORCA property calculations      *
                            ***************************************

                                    ---------------------
                                    Active property flags
                                    ---------------------
   (+) Dipole Moment


------------------------------------------------------------------------------
                       ORCA ELECTRIC PROPERTIES CALCULATION
------------------------------------------------------------------------------

Dipole Moment Calculation                       ... on
Quadrupole Moment Calculation                   ... off
Polarizability Calculation                      ... off
GBWName                                         ... i2_atom53.gbw
Electron density                                ... i2_atom53.scfp
The origin for moment calculation is the CENTER OF MASS  = ( 0.000000,  0.000000  0.000000)

-------------
DIPOLE MOMENT
-------------
                                X             Y             Z
Electronic contribution:     -0.00000       0.00000       0.00000
Nuclear contribution   :      0.00000       0.00000       0.00000
                        -----------------------------------------
Total Dipole Moment    :     -0.00000       0.00000       0.00000
                        -----------------------------------------
Magnitude (a.u.)       :      0.00000
Magnitude (Debye)      :      0.00000



--------------------
Rotational spectrum 
--------------------
 
Rotational constants in cm-1:     0.000000     0.000000     0.000000 
Rotational constants in MHz :     0.000000     0.000000     0.000000 

 Dipole components along the rotational axes: 
x,y,z [a.u.] :    -0.000000     0.000000     0.000000 
x,y,z [Debye]:    -0.000000     0.000000     0.000000 

 

Timings for individual modules:

Sum of individual times         ...        3.513 sec (=   0.059 min)
GTO integral calculation        ...        2.246 sec (=   0.037 min)  63.9 %
SCF iterations                  ...        1.267 sec (=   0.021 min)  36.1 %
                             ****ORCA TERMINATED NORMALLY****
TOTAL RUN TIME: 0 days 0 hours 0 minutes 3 seconds 976 msec
