
 Working directory              : /scratch/emmanous/3821790.pbs01/molpro.EeP2LkaKfo/
 Global scratch directory       : /scratch/emmanous/3821790.pbs01/molpro.EeP2LkaKfo/
 Wavefunction directory         : /home/emmanous/wfu/
 Main file repository           : /scratch/emmanous/3821790.pbs01/molpro.EeP2LkaKfo/

 id        : wis

 Nodes     nprocs
 cff051      16
 GA implementation: MPI file
 GA implementation (serial work in mppx): MPI file

 Using DEFAULT tuning parameter for ncache   :   16384
 Using DEFAULT tuning parameter for mflopdgm :   10000
 Using DEFAULT tuning parameter for mflopdgv :    4000
 Using DEFAULT tuning parameter for mflopmxm :    5000
 Using DEFAULT tuning parameter for mflopmxv :    4000
 Using DEFAULT tuning parameter for mindgm   :       1
 Using DEFAULT tuning parameter for mindgc   :       4
 Using DEFAULT tuning parameter for mindgf   :    5000
 Using DEFAULT tuning parameter for mindgl   :       4
 Using DEFAULT tuning parameter for mindgr   :       1
 Using DEFAULT tuning parameter for mindgv   :      20
 Using DEFAULT tuning parameter for mincuda  :     500
 Using DEFAULT tuning parameter for mxmblk   :      64
 Using DEFAULT tuning parameter for mxmbln   :      64
 Using DEFAULT tuning parameter for nroll    :       2
 Using custom tuning parameter for ngpus     :       0
 Using customized tuning parameters: mindgm=1; mindgv=20; mindgc=4; mindgr=1; noblas=0; minvec=7

 Fortran compiler: integer size=8, double size=8, logical size=8
 default implementation of scratch files=sf  


 Variables initialized (1025), CPU time= 0.01 sec
 gprint,basis
 gthresh,energy=1d-9
 ANGSTROM
 geomtyp=xyz
 charge=0
 multiplicity=1
 nosym
 geom={
 I ,0.0000 ,0.0000 ,0.0000
 I ,0.0000 ,0.0000  2.6655
 }
 
 basis={
 default,cc-pVDZ-PP-F12
 set,df
 default,cc-pVDZ-PP-F12/MP2Fit
 set,jk
 default,cc-pVDZ-PP-F12/JKFIT
 set,ri
 default,def2-QZVPP/JKFit
 }
 {df-hf,df_basis=jk
 wf,,,$multiplicity-1
 print,orbitals
 maxit,300}
 {df-cabs,gem_beta=1.0,df_basis=df,df_basis_exch=jk,ri_basis=ri,thrcabs=1d-9,thrcabs_rel=1d-9;explicit,ignore_bad_singl=1}
 Commands initialized (840), CPU time= 0.01 sec, 684 directives.
 Default parameters read. Elapsed time= 0.08 sec

 Using DEFAULT tuning parameter for mpplat   :       3
 Using DEFAULT tuning parameter for mppspeed :    1600
 Checking input...
 Passed
1


                                         ***  PROGRAM SYSTEM MOLPRO  ***
                                       Copyright, TTI GmbH Stuttgart, 2015
                                    Version 2022.3 linked Wed Nov 30 13:40:34 2022


 **********************************************************************************************************************************
 LABEL *                                                                                 
  64 bit mpp version                                                                     DATE: 13-Jul-23          TIME: 11:27:03  
 **********************************************************************************************************************************

 SHA1:             e31ec9a5ea85254ab76f59d122cbdd51c71cf98b
 **********************************************************************************************************************************

 Memory per process:      1000 MW
 Total memory per node:  16000 MW

 GA preallocation disabled
 GA check disabled

 Variable memory set to 1000.0 MW



 THRESHOLDS:

 ZERO    =  1.00D-12  ONEINT  =  1.00D-12  TWOINT  =  1.00D-11  PREFAC  =  1.00D-14  XXXXXX  =  1.00D-09  EORDER  =  1.00D-04
 ENERGY  =  1.00D-09  ETEST   =  0.00D+00  EDENS   =  0.00D+00  THRDEDEF=  1.00D-06  GRADIENT=  1.00D-05  STEP    =  1.00D-03
 ORBITAL =  1.00D-05  CIVEC   =  1.00D-05  COEFF   =  1.00D-04  PRINTCI =  5.00D-02  PUNCHCI =  9.90D+01  OPTGRAD =  3.00D-04
 OPTENERG=  1.00D-06  OPTSTEP =  3.00D-04  THRGRAD =  1.00D-10  COMPRESS=  1.00D-11  VARMIN  =  1.00D-07  VARMAX  =  1.00D-03
 THRDOUB =  0.00D+00  THRDIV  =  1.00D-05  THRRED  =  1.00D-07  THRPSP  =  1.00D+00  THRDC   =  1.00D-10  THRCS   =  1.00D-10
 THRNRM  =  1.00D-08  THREQ   =  0.00D+00  THRDE   =  1.00D+00  THRREF  =  1.00D-05  SPARFAC =  1.00D+00  THRDLP  =  1.00D-07
 THRDIA  =  1.00D-10  THRDLS  =  1.00D-07  THRGPS  =  0.00D+00  THRKEX  =  0.00D+00  THRDIS  =  2.00D-01  THRVAR  =  1.00D-10
 THRLOC  =  1.00D-06  THRGAP  =  1.00D-06  THRLOCT = -1.00D+00  THRGAPT = -1.00D+00  THRORB  =  1.00D-06  THRMLTP =  0.00D+00
 THRCPQCI=  1.00D-10  KEXTA   =  0.00D+00  THRCOARS=  0.00D+00  SYMTOL  =  1.00D-06  GRADTOL =  1.00D-06  THROVL  =  1.00D-08
 THRORTH =  1.00D-08  THRDLOVL= -1.00D+00  GRID    =  1.00D-06  GRIDMAX =  1.00D-03  DTMAX   =  0.00D+00  THROCCDE=  1.00D-01
 THROCCDE=  1.00D-01  THRPRINT=  2.50D-01

 SETTING GEOMTYP        =    XYZ
 SETTING CHARGE         =      0.0000000D+00                                  
 SETTING MULTIPLICITY   =         1.00000000                                  
 ZSYMEL=NOSYM
 ZUNIT=ANG

 SETTING BASIS          =    CC-PVDZ-PP-F12


 Recomputing integrals since basis changed


 Using spherical harmonics

 Library entry I    ECP ECP28MDF                 selected for group  1
 Library entry I      S cc-pVDZ-PP-F12       selected for orbital group  1
 Library entry I      P cc-pVDZ-PP-F12       selected for orbital group  1
 Library entry I      D cc-pVDZ-PP-F12       selected for orbital group  1
 Library entry I      F cc-pVDZ-PP-F12       selected for orbital group  1


 PROGRAM * SEWARD (Integral evaluation for generally contracted gaussian basis sets)     Author: Roland Lindh, 1990

 Geometry written to block  1 of record 700


 Point group  C1  



 ATOMIC COORDINATES

 NR  ATOM    CHARGE       X              Y              Z

   1  I      25.00    0.000000000    0.000000000    0.000000000
   2  I      25.00    0.000000000    0.000000000    5.037064985

 Bond lengths in Bohr (Angstrom)

 1-2  5.037064985
     ( 2.665500000)


          I   CORE POTENTIAL

          g POTENTIAL

 POWERS             2
 EXPONENTIALS   1.000000    
 COEFFICIENTS   0.000000    

          s - g POTENTIAL

 POWERS             2              2              2
 EXPONENTIALS   40.03338       17.30058       8.851720    
 COEFFICIENTS   49.98965       281.0066       61.41674    

          p - g POTENTIAL

 POWERS             2              2              2              2
 EXPONENTIALS   15.72014       15.20822       8.294186       7.753949    
 COEFFICIENTS   67.41624       134.8077       14.56655       28.96842    

          d - g POTENTIAL

 POWERS             2              2              2              2
 EXPONENTIALS   13.81775       13.58780       6.947630       6.960099    
 COEFFICIENTS   35.53876       53.33976       9.716466       14.97750    

          f - g POTENTIAL

 POWERS             2              2              2              2
 EXPONENTIALS   18.52295       18.25104       7.557901       7.597404    
 COEFFICIENTS  -20.17662      -26.08808     -0.2204340     -0.2216460    


          I   SPIN-ORBIT POTENTIAL

          p POTENTIAL

 POWERS             2              2              2              2
 EXPONENTIALS   15.72014       15.20822       8.294186       7.753949    
 COEFFICIENTS  -134.8325       134.8077      -29.13310       28.96842    

          d POTENTIAL

 POWERS             2              2              2              2
 EXPONENTIALS   13.81775       13.58780       6.947630       6.960099    
 COEFFICIENTS  -35.53876       35.55984      -9.716466       9.985000    

          f POTENTIAL

 POWERS             2              2              2              2
 EXPONENTIALS   18.52295       18.25104       7.557901       7.597404    
 COEFFICIENTS   13.45108      -13.04404      0.1469560     -0.1108230    


          I   CORE POTENTIAL

          g POTENTIAL

 POWERS             2
 EXPONENTIALS   1.000000    
 COEFFICIENTS   0.000000    

          s - g POTENTIAL

 POWERS             2              2              2
 EXPONENTIALS   40.03338       17.30058       8.851720    
 COEFFICIENTS   49.98965       281.0066       61.41674    

          p - g POTENTIAL

 POWERS             2              2              2              2
 EXPONENTIALS   15.72014       15.20822       8.294186       7.753949    
 COEFFICIENTS   67.41624       134.8077       14.56655       28.96842    

          d - g POTENTIAL

 POWERS             2              2              2              2
 EXPONENTIALS   13.81775       13.58780       6.947630       6.960099    
 COEFFICIENTS   35.53876       53.33976       9.716466       14.97750    

          f - g POTENTIAL

 POWERS             2              2              2              2
 EXPONENTIALS   18.52295       18.25104       7.557901       7.597404    
 COEFFICIENTS  -20.17662      -26.08808     -0.2204340     -0.2216460    


          I   SPIN-ORBIT POTENTIAL

          p POTENTIAL

 POWERS             2              2              2              2
 EXPONENTIALS   15.72014       15.20822       8.294186       7.753949    
 COEFFICIENTS  -134.8325       134.8077      -29.13310       28.96842    

          d POTENTIAL

 POWERS             2              2              2              2
 EXPONENTIALS   13.81775       13.58780       6.947630       6.960099    
 COEFFICIENTS  -35.53876       35.55984      -9.716466       9.985000    

          f POTENTIAL

 POWERS             2              2              2              2
 EXPONENTIALS   18.52295       18.25104       7.557901       7.597404    
 COEFFICIENTS   13.45108      -13.04404      0.1469560     -0.1108230    


 BASIS DATA

   Nr Sym  Nuc  Type         Exponents   Contraction coefficients

    1.1 A     1  1s        5546.500000     0.000156   -0.000073    0.000000    0.000000
    2.1 A                   838.214000     0.000986   -0.000508    0.000000    0.000000
    3.1 A                   182.187000     0.002792   -0.001158    0.000000    0.000000
    4.1 A                    31.212300    -0.043251    0.012193    0.000000    0.000000
                             19.531400     0.234134   -0.087854    0.000000    0.000000
                              8.240990    -0.750943    0.338200    0.000000    0.000000
                              2.194550     0.882968   -0.576550    0.000000    0.000000
                              1.109110     0.462061   -0.409298    0.000000    0.000000
                              0.374641     0.022286    0.567459    1.000000    0.000000
                              0.177080    -0.004353    0.612489    0.000000    1.000000
                              0.081061     0.001102    0.143231    0.000000    0.000000
    5.1 A     1  1s           0.100100     1.000000
    6.1 A     1  1s           0.041200     1.000000
    7.1 A     1  2px        188.988000     0.000585
                             21.286800     0.036923
                             10.039600    -0.235324
                              3.451800     0.341483
                              1.974560     0.534788
                              1.024200     0.265141
                              0.449437     0.025787
                              0.186648     0.000522
                              0.073481     0.000606
    8.1 A     1  2py        188.988000     0.000585
                             21.286800     0.036923
                             10.039600    -0.235324
                              3.451800     0.341483
                              1.974560     0.534788
                              1.024200     0.265141
                              0.449437     0.025787
                              0.186648     0.000522
                              0.073481     0.000606
    9.1 A     1  2pz        188.988000     0.000585
                             21.286800     0.036923
                             10.039600    -0.235324
                              3.451800     0.341483
                              1.974560     0.534788
                              1.024200     0.265141
                              0.449437     0.025787
                              0.186648     0.000522
                              0.073481     0.000606
   10.1 A     1  2px        188.988000    -0.000256
                             21.286800    -0.011682
                             10.039600     0.083192
                              3.451800    -0.156970
                              1.974560    -0.224518
                              1.024200    -0.114451
                              0.449437     0.375356
                              0.186648     0.575136
                              0.073481     0.245917
   11.1 A     1  2py        188.988000    -0.000256
                             21.286800    -0.011682
                             10.039600     0.083192
                              3.451800    -0.156970
                              1.974560    -0.224518
                              1.024200    -0.114451
                              0.449437     0.375356
                              0.186648     0.575136
                              0.073481     0.245917
   12.1 A     1  2pz        188.988000    -0.000256
                             21.286800    -0.011682
                             10.039600     0.083192
                              3.451800    -0.156970
                              1.974560    -0.224518
                              1.024200    -0.114451
                              0.449437     0.375356
                              0.186648     0.575136
                              0.073481     0.245917
   13.1 A     1  2px          0.598100     1.000000
   14.1 A     1  2py          0.598100     1.000000
   15.1 A     1  2pz          0.598100     1.000000
   16.1 A     1  2px          0.096180     1.000000
   17.1 A     1  2py          0.096180     1.000000
   18.1 A     1  2pz          0.096180     1.000000
   19.1 A     1  2px          0.035900     1.000000
   20.1 A     1  2py          0.035900     1.000000
   21.1 A     1  2pz          0.035900     1.000000
   22.1 A     1  3d0        132.662000     0.000572
                             37.605400     0.004402
                             10.389100    -0.040922
                              6.490170     0.099661
                              3.454510     0.322663
                              1.844130     0.400343
                              0.962478     0.268306
                              0.472853     0.084847
                              0.193200     0.007632
   23.1 A     1  3d2-       132.662000     0.000572
                             37.605400     0.004402
                             10.389100    -0.040922
                              6.490170     0.099661
                              3.454510     0.322663
                              1.844130     0.400343
                              0.962478     0.268306
                              0.472853     0.084847
                              0.193200     0.007632
   24.1 A     1  3d1+       132.662000     0.000572
                             37.605400     0.004402
                             10.389100    -0.040922
                              6.490170     0.099661
                              3.454510     0.322663
                              1.844130     0.400343
                              0.962478     0.268306
                              0.472853     0.084847
                              0.193200     0.007632
   25.1 A     1  3d2+       132.662000     0.000572
                             37.605400     0.004402
                             10.389100    -0.040922
                              6.490170     0.099661
                              3.454510     0.322663
                              1.844130     0.400343
                              0.962478     0.268306
                              0.472853     0.084847
                              0.193200     0.007632
   26.1 A     1  3d1-       132.662000     0.000572
                             37.605400     0.004402
                             10.389100    -0.040922
                              6.490170     0.099661
                              3.454510     0.322663
                              1.844130     0.400343
                              0.962478     0.268306
                              0.472853     0.084847
                              0.193200     0.007632
   27.1 A     1  3d0          1.798900     1.000000
   28.1 A     1  3d2-         1.798900     1.000000
   29.1 A     1  3d1+         1.798900     1.000000
   30.1 A     1  3d2+         1.798900     1.000000
   31.1 A     1  3d1-         1.798900     1.000000
   32.1 A     1  3d0          0.355800     1.000000
   33.1 A     1  3d2-         0.355800     1.000000
   34.1 A     1  3d1+         0.355800     1.000000
   35.1 A     1  3d2+         0.355800     1.000000
   36.1 A     1  3d1-         0.355800     1.000000
   37.1 A     1  3d0          0.143400     1.000000
   38.1 A     1  3d2-         0.143400     1.000000
   39.1 A     1  3d1+         0.143400     1.000000
   40.1 A     1  3d2+         0.143400     1.000000
   41.1 A     1  3d1-         0.143400     1.000000
   42.1 A     1  4f1+         1.485900     1.000000
   43.1 A     1  4f1-         1.485900     1.000000
   44.1 A     1  4f0          1.485900     1.000000
   45.1 A     1  4f3+         1.485900     1.000000
   46.1 A     1  4f2-         1.485900     1.000000
   47.1 A     1  4f3-         1.485900     1.000000
   48.1 A     1  4f2+         1.485900     1.000000
   49.1 A     2  1s        5546.500000     0.000156   -0.000073    0.000000    0.000000
   50.1 A                   838.214000     0.000986   -0.000508    0.000000    0.000000
   51.1 A                   182.187000     0.002792   -0.001158    0.000000    0.000000
   52.1 A                    31.212300    -0.043251    0.012193    0.000000    0.000000
                             19.531400     0.234134   -0.087854    0.000000    0.000000
                              8.240990    -0.750943    0.338200    0.000000    0.000000
                              2.194550     0.882968   -0.576550    0.000000    0.000000
                              1.109110     0.462061   -0.409298    0.000000    0.000000
                              0.374641     0.022286    0.567459    1.000000    0.000000
                              0.177080    -0.004353    0.612489    0.000000    1.000000
                              0.081061     0.001102    0.143231    0.000000    0.000000
   53.1 A     2  1s           0.100100     1.000000
   54.1 A     2  1s           0.041200     1.000000
   55.1 A     2  2px        188.988000     0.000585
                             21.286800     0.036923
                             10.039600    -0.235324
                              3.451800     0.341483
                              1.974560     0.534788
                              1.024200     0.265141
                              0.449437     0.025787
                              0.186648     0.000522
                              0.073481     0.000606
   56.1 A     2  2py        188.988000     0.000585
                             21.286800     0.036923
                             10.039600    -0.235324
                              3.451800     0.341483
                              1.974560     0.534788
                              1.024200     0.265141
                              0.449437     0.025787
                              0.186648     0.000522
                              0.073481     0.000606
   57.1 A     2  2pz        188.988000     0.000585
                             21.286800     0.036923
                             10.039600    -0.235324
                              3.451800     0.341483
                              1.974560     0.534788
                              1.024200     0.265141
                              0.449437     0.025787
                              0.186648     0.000522
                              0.073481     0.000606
   58.1 A     2  2px        188.988000    -0.000256
                             21.286800    -0.011682
                             10.039600     0.083192
                              3.451800    -0.156970
                              1.974560    -0.224518
                              1.024200    -0.114451
                              0.449437     0.375356
                              0.186648     0.575136
                              0.073481     0.245917
   59.1 A     2  2py        188.988000    -0.000256
                             21.286800    -0.011682
                             10.039600     0.083192
                              3.451800    -0.156970
                              1.974560    -0.224518
                              1.024200    -0.114451
                              0.449437     0.375356
                              0.186648     0.575136
                              0.073481     0.245917
   60.1 A     2  2pz        188.988000    -0.000256
                             21.286800    -0.011682
                             10.039600     0.083192
                              3.451800    -0.156970
                              1.974560    -0.224518
                              1.024200    -0.114451
                              0.449437     0.375356
                              0.186648     0.575136
                              0.073481     0.245917
   61.1 A     2  2px          0.598100     1.000000
   62.1 A     2  2py          0.598100     1.000000
   63.1 A     2  2pz          0.598100     1.000000
   64.1 A     2  2px          0.096180     1.000000
   65.1 A     2  2py          0.096180     1.000000
   66.1 A     2  2pz          0.096180     1.000000
   67.1 A     2  2px          0.035900     1.000000
   68.1 A     2  2py          0.035900     1.000000
   69.1 A     2  2pz          0.035900     1.000000
   70.1 A     2  3d0        132.662000     0.000572
                             37.605400     0.004402
                             10.389100    -0.040922
                              6.490170     0.099661
                              3.454510     0.322663
                              1.844130     0.400343
                              0.962478     0.268306
                              0.472853     0.084847
                              0.193200     0.007632
   71.1 A     2  3d2-       132.662000     0.000572
                             37.605400     0.004402
                             10.389100    -0.040922
                              6.490170     0.099661
                              3.454510     0.322663
                              1.844130     0.400343
                              0.962478     0.268306
                              0.472853     0.084847
                              0.193200     0.007632
   72.1 A     2  3d1+       132.662000     0.000572
                             37.605400     0.004402
                             10.389100    -0.040922
                              6.490170     0.099661
                              3.454510     0.322663
                              1.844130     0.400343
                              0.962478     0.268306
                              0.472853     0.084847
                              0.193200     0.007632
   73.1 A     2  3d2+       132.662000     0.000572
                             37.605400     0.004402
                             10.389100    -0.040922
                              6.490170     0.099661
                              3.454510     0.322663
                              1.844130     0.400343
                              0.962478     0.268306
                              0.472853     0.084847
                              0.193200     0.007632
   74.1 A     2  3d1-       132.662000     0.000572
                             37.605400     0.004402
                             10.389100    -0.040922
                              6.490170     0.099661
                              3.454510     0.322663
                              1.844130     0.400343
                              0.962478     0.268306
                              0.472853     0.084847
                              0.193200     0.007632
   75.1 A     2  3d0          1.798900     1.000000
   76.1 A     2  3d2-         1.798900     1.000000
   77.1 A     2  3d1+         1.798900     1.000000
   78.1 A     2  3d2+         1.798900     1.000000
   79.1 A     2  3d1-         1.798900     1.000000
   80.1 A     2  3d0          0.355800     1.000000
   81.1 A     2  3d2-         0.355800     1.000000
   82.1 A     2  3d1+         0.355800     1.000000
   83.1 A     2  3d2+         0.355800     1.000000
   84.1 A     2  3d1-         0.355800     1.000000
   85.1 A     2  3d0          0.143400     1.000000
   86.1 A     2  3d2-         0.143400     1.000000
   87.1 A     2  3d1+         0.143400     1.000000
   88.1 A     2  3d2+         0.143400     1.000000
   89.1 A     2  3d1-         0.143400     1.000000
   90.1 A     2  4f1+         1.485900     1.000000
   91.1 A     2  4f1-         1.485900     1.000000
   92.1 A     2  4f0          1.485900     1.000000
   93.1 A     2  4f3+         1.485900     1.000000
   94.1 A     2  4f2-         1.485900     1.000000
   95.1 A     2  4f3-         1.485900     1.000000
   96.1 A     2  4f2+         1.485900     1.000000

 NUCLEAR CHARGE:                   50
 NUMBER OF PRIMITIVE AOS:         262
 NUMBER OF SYMMETRY AOS:          232
 NUMBER OF CONTRACTIONS:           96   (   96A   )
 NUMBER OF INNER CORE ORBITALS:     0   (    0A   )
 NUMBER OF OUTER CORE ORBITALS:    18   (   18A   )
 NUMBER OF VALENCE ORBITALS:        8   (    8A   )


 LX: A            LY: A            LZ: A  


 NUCLEAR REPULSION ENERGY  124.08019389


 Library entry I      S VDZ-PP-F12_MP2       selected for DF group  1
 Library entry I      P VDZ-PP-F12_MP2       selected for DF group  1
 Library entry I      D VDZ-PP-F12_MP2       selected for DF group  1
 Library entry I      F VDZ-PP-F12_MP2       selected for DF group  1
 Library entry I      G VDZ-PP-F12_MP2       selected for DF group  1
 Library entry I      H VDZ-PP-F12_MP2       selected for DF group  1
 Basis set:    DF
 Basis size:   404
 Sphericals:   T
 =======================================
 Centre l       exponent    contractions
 =======================================

    1   s      43.148700      1.000000
    1   s      28.371500      1.000000
    1   s      14.953700      1.000000
    1   s       6.663560      1.000000
    1   s       4.207410      1.000000
    1   s       2.479710      1.000000
    1   s       1.152080      1.000000
    1   s       0.652358      1.000000
    1   s       0.358699      1.000000
    1   s       0.238033      1.000000
    1   s       0.092840      1.000000

    1   p      14.880900      1.000000
    1   p       8.770630      1.000000
    1   p       4.985770      1.000000
    1   p       2.437390      1.000000
    1   p       1.466490      1.000000
    1   p       0.716733      1.000000
    1   p       0.508093      1.000000
    1   p       0.299954      1.000000
    1   p       0.154362      1.000000
    1   p       0.083782      1.000000

    1   d       9.802940      1.000000
    1   d       6.209440      1.000000
    1   d       4.496220      1.000000
    1   d       2.613630      1.000000
    1   d       1.572590      1.000000
    1   d       0.843076      1.000000
    1   d       0.451684      1.000000
    1   d       0.289979      1.000000
    1   d       0.118072      1.000000

    1   f      10.027000      1.000000
    1   f       6.912370      1.000000
    1   f       2.812350      1.000000
    1   f       1.890010      1.000000
    1   f       1.166680      1.000000
    1   f       0.634040      1.000000
    1   f       0.305228      1.000000

    1   g       7.001060      1.000000
    1   g       4.165590      1.000000
    1   g       1.388060      1.000000
    1   g       0.877063      1.000000
    1   g       0.316417      1.000000

    1   h       4.250870      1.000000
    1   h       2.212550      1.000000

    2   s      43.148700      1.000000
    2   s      28.371500      1.000000
    2   s      14.953700      1.000000
    2   s       6.663560      1.000000
    2   s       4.207410      1.000000
    2   s       2.479710      1.000000
    2   s       1.152080      1.000000
    2   s       0.652358      1.000000
    2   s       0.358699      1.000000
    2   s       0.238033      1.000000
    2   s       0.092840      1.000000

    2   p      14.880900      1.000000
    2   p       8.770630      1.000000
    2   p       4.985770      1.000000
    2   p       2.437390      1.000000
    2   p       1.466490      1.000000
    2   p       0.716733      1.000000
    2   p       0.508093      1.000000
    2   p       0.299954      1.000000
    2   p       0.154362      1.000000
    2   p       0.083782      1.000000

    2   d       9.802940      1.000000
    2   d       6.209440      1.000000
    2   d       4.496220      1.000000
    2   d       2.613630      1.000000
    2   d       1.572590      1.000000
    2   d       0.843076      1.000000
    2   d       0.451684      1.000000
    2   d       0.289979      1.000000
    2   d       0.118072      1.000000

    2   f      10.027000      1.000000
    2   f       6.912370      1.000000
    2   f       2.812350      1.000000
    2   f       1.890010      1.000000
    2   f       1.166680      1.000000
    2   f       0.634040      1.000000
    2   f       0.305228      1.000000

    2   g       7.001060      1.000000
    2   g       4.165590      1.000000
    2   g       1.388060      1.000000
    2   g       0.877063      1.000000
    2   g       0.316417      1.000000

    2   h       4.250870      1.000000
    2   h       2.212550      1.000000
 =======================================

 Library entry I      S def2-QZVPP-JKFIT     selected for JK group  1
 Library entry I      P def2-QZVPP-JKFIT     selected for JK group  1
 Library entry I      D def2-QZVPP-JKFIT     selected for JK group  1
 Library entry I      F def2-QZVPP-JKFIT     selected for JK group  1
 Library entry I      G def2-QZVPP-JKFIT     selected for JK group  1
 Library entry I      H def2-QZVPP-JKFIT     selected for JK group  1
 Basis set:    JK
 Basis size:   436
 Sphericals:   T
 =======================================
 Centre l       exponent    contractions
 =======================================

    1   s      78.663624      0.022672
    1   s      48.541031     -0.181523
    1   s      29.953789      0.983125

    1   s      18.484236      1.000000
    1   s      11.406634      1.000000
    1   s       7.039130      1.000000
    1   s       4.343955      1.000000
    1   s       2.680746      1.000000
    1   s       1.654357      1.000000
    1   s       1.020952      1.000000
    1   s       0.630062      1.000000
    1   s       0.388833      1.000000
    1   s       0.239962      1.000000

    1   p      58.564944      0.000048
    1   p      32.524986      0.091692
    1   p      18.063613     -0.995787

    1   p      10.032273      1.000000
    1   p       5.571864      1.000000
    1   p       3.094619      1.000000
    1   p       1.718773      1.000000
    1   p       0.954627      1.000000
    1   p       0.530215      1.000000
    1   p       0.294491      1.000000
    1   p       0.163566      1.000000
    1   p       0.090848      1.000000

    1   d      36.660417      0.038285
    1   d      20.124038      0.999267

    1   d      11.073863      1.000000
    1   d       6.106976      1.000000
    1   d       3.374211      1.000000
    1   d       1.867293      1.000000
    1   d       1.034717      1.000000
    1   d       0.573949      1.000000
    1   d       0.318597      1.000000
    1   d       0.176930      1.000000
    1   d       0.098270      1.000000

    1   f      23.924299      0.000522
    1   f      12.079185      1.000000

    1   f       6.098816      1.000000
    1   f       3.079365      1.000000
    1   f       1.524193      1.000000
    1   f       0.769601      1.000000
    1   f       0.396403      1.000000
    1   f       0.200155      1.000000

    1   g      13.390089      0.036145
    1   g       6.828545      0.999347

    1   g       3.447896      1.000000
    1   g       1.591489      1.000000
    1   g       0.700448      1.000000
    1   g       0.239527      1.000000

    1   h       6.009272      1.000000
    1   h       2.163197      1.000000
    1   h       0.778700      1.000000

    2   s      78.663624      0.022672
    2   s      48.541031     -0.181523
    2   s      29.953789      0.983125

    2   s      18.484236      1.000000
    2   s      11.406634      1.000000
    2   s       7.039130      1.000000
    2   s       4.343955      1.000000
    2   s       2.680746      1.000000
    2   s       1.654357      1.000000
    2   s       1.020952      1.000000
    2   s       0.630062      1.000000
    2   s       0.388833      1.000000
    2   s       0.239962      1.000000

    2   p      58.564944      0.000048
    2   p      32.524986      0.091692
    2   p      18.063613     -0.995787

    2   p      10.032273      1.000000
    2   p       5.571864      1.000000
    2   p       3.094619      1.000000
    2   p       1.718773      1.000000
    2   p       0.954627      1.000000
    2   p       0.530215      1.000000
    2   p       0.294491      1.000000
    2   p       0.163566      1.000000
    2   p       0.090848      1.000000

    2   d      36.660417      0.038285
    2   d      20.124038      0.999267

    2   d      11.073863      1.000000
    2   d       6.106976      1.000000
    2   d       3.374211      1.000000
    2   d       1.867293      1.000000
    2   d       1.034717      1.000000
    2   d       0.573949      1.000000
    2   d       0.318597      1.000000
    2   d       0.176930      1.000000
    2   d       0.098270      1.000000

    2   f      23.924299      0.000522
    2   f      12.079185      1.000000

    2   f       6.098816      1.000000
    2   f       3.079365      1.000000
    2   f       1.524193      1.000000
    2   f       0.769601      1.000000
    2   f       0.396403      1.000000
    2   f       0.200155      1.000000

    2   g      13.390089      0.036145
    2   g       6.828545      0.999347

    2   g       3.447896      1.000000
    2   g       1.591489      1.000000
    2   g       0.700448      1.000000
    2   g       0.239527      1.000000

    2   h       6.009272      1.000000
    2   h       2.163197      1.000000
    2   h       0.778700      1.000000
 =======================================

 Library entry I      S def2-QZVPP-JKFIT     selected for RI group  1
 Library entry I      P def2-QZVPP-JKFIT     selected for RI group  1
 Library entry I      D def2-QZVPP-JKFIT     selected for RI group  1
 Library entry I      F def2-QZVPP-JKFIT     selected for RI group  1
 Library entry I      G def2-QZVPP-JKFIT     selected for RI group  1
 Library entry I      H def2-QZVPP-JKFIT     selected for RI group  1
 Basis set:    RI
 Basis size:   436
 Sphericals:   T
 =======================================
 Centre l       exponent    contractions
 =======================================

    1   s      78.663624      0.022672
    1   s      48.541031     -0.181523
    1   s      29.953789      0.983125

    1   s      18.484236      1.000000
    1   s      11.406634      1.000000
    1   s       7.039130      1.000000
    1   s       4.343955      1.000000
    1   s       2.680746      1.000000
    1   s       1.654357      1.000000
    1   s       1.020952      1.000000
    1   s       0.630062      1.000000
    1   s       0.388833      1.000000
    1   s       0.239962      1.000000

    1   p      58.564944      0.000048
    1   p      32.524986      0.091692
    1   p      18.063613     -0.995787

    1   p      10.032273      1.000000
    1   p       5.571864      1.000000
    1   p       3.094619      1.000000
    1   p       1.718773      1.000000
    1   p       0.954627      1.000000
    1   p       0.530215      1.000000
    1   p       0.294491      1.000000
    1   p       0.163566      1.000000
    1   p       0.090848      1.000000

    1   d      36.660417      0.038285
    1   d      20.124038      0.999267

    1   d      11.073863      1.000000
    1   d       6.106976      1.000000
    1   d       3.374211      1.000000
    1   d       1.867293      1.000000
    1   d       1.034717      1.000000
    1   d       0.573949      1.000000
    1   d       0.318597      1.000000
    1   d       0.176930      1.000000
    1   d       0.098270      1.000000

    1   f      23.924299      0.000522
    1   f      12.079185      1.000000

    1   f       6.098816      1.000000
    1   f       3.079365      1.000000
    1   f       1.524193      1.000000
    1   f       0.769601      1.000000
    1   f       0.396403      1.000000
    1   f       0.200155      1.000000

    1   g      13.390089      0.036145
    1   g       6.828545      0.999347

    1   g       3.447896      1.000000
    1   g       1.591489      1.000000
    1   g       0.700448      1.000000
    1   g       0.239527      1.000000

    1   h       6.009272      1.000000
    1   h       2.163197      1.000000
    1   h       0.778700      1.000000

    2   s      78.663624      0.022672
    2   s      48.541031     -0.181523
    2   s      29.953789      0.983125

    2   s      18.484236      1.000000
    2   s      11.406634      1.000000
    2   s       7.039130      1.000000
    2   s       4.343955      1.000000
    2   s       2.680746      1.000000
    2   s       1.654357      1.000000
    2   s       1.020952      1.000000
    2   s       0.630062      1.000000
    2   s       0.388833      1.000000
    2   s       0.239962      1.000000

    2   p      58.564944      0.000048
    2   p      32.524986      0.091692
    2   p      18.063613     -0.995787

    2   p      10.032273      1.000000
    2   p       5.571864      1.000000
    2   p       3.094619      1.000000
    2   p       1.718773      1.000000
    2   p       0.954627      1.000000
    2   p       0.530215      1.000000
    2   p       0.294491      1.000000
    2   p       0.163566      1.000000
    2   p       0.090848      1.000000

    2   d      36.660417      0.038285
    2   d      20.124038      0.999267

    2   d      11.073863      1.000000
    2   d       6.106976      1.000000
    2   d       3.374211      1.000000
    2   d       1.867293      1.000000
    2   d       1.034717      1.000000
    2   d       0.573949      1.000000
    2   d       0.318597      1.000000
    2   d       0.176930      1.000000
    2   d       0.098270      1.000000

    2   f      23.924299      0.000522
    2   f      12.079185      1.000000

    2   f       6.098816      1.000000
    2   f       3.079365      1.000000
    2   f       1.524193      1.000000
    2   f       0.769601      1.000000
    2   f       0.396403      1.000000
    2   f       0.200155      1.000000

    2   g      13.390089      0.036145
    2   g       6.828545      0.999347

    2   g       3.447896      1.000000
    2   g       1.591489      1.000000
    2   g       0.700448      1.000000
    2   g       0.239527      1.000000

    2   h       6.009272      1.000000
    2   h       2.163197      1.000000
    2   h       0.778700      1.000000
 =======================================


 **********************************************************************************************************************************

 EXTRA SYMMETRY OF AOS IN SYMMETRY 1:   1 1 1 1 1 1 2 3 1 2   3 1 2 3 1 2 3 1 2 3   1 1 4 2 5 3 1 4 2 5   3 1 4 2 5 3 1 4 2 5
                                        3 2 3 1 6 4 7 5 1 1   1 1 1 1 2 3 1 2 3 1   2 3 1 2 3 1 2 3 1 1   4 2 5 3 1 4 2 5 3 1
                                        4 2 5 3 1 4 2 5 3 2   3 1 6 4 7 5


 Eigenvalues of metric

         1 0.773E-03 0.268E-02 0.444E-02 0.650E-02 0.698E-02 0.916E-02 0.978E-02 0.978E-02


 OPERATOR DM      FOR CENTER  0  COORDINATES:    0.000000    0.000000    0.000000


 **********************************************************************************************************************************
 DATASETS  * FILE   NREC   LENGTH (MB)   RECORD NAMES
              1      19       29.08       500      610      700      900      950      970     1000      129      960     1100   
                                          VAR    BASINP    GEOM    SYMINP    ZMAT    AOBASIS   BASIS     P2S    ABASIS      S 
                                         1400     1410     1420     1200     1210     1080     1700     1600     1650   
                                           T        V       ECP      H0       H01     AOSYM    OPER      SMH    MOLCAS    

 PROGRAMS   *        TOTAL       INT
 CPU TIMES  *         0.49      0.35
 REAL TIME  *         1.24 SEC
 DISK USED  *        29.39 MB (local),      470.16 MB (total)
 GA USED    *         0.00 MB       (max)       0.00 MB       (current)
 **********************************************************************************************************************************


 Program * Restricted Hartree-Fock

 Coulomb and exchange fitting
 Thresholds for fitting:       THRAO_COUL= 1.0D-15    THRAO_EXCH= 1.0D-13    THRMO= 1.0D-12    THRPROD= 1.0D-12    THRASM= 1.0D-12
                               THR2HLF=    1.0D-12

 Basis set JK loaded. Number of basis functions: 436

 Orbital guess generated from atomic densities. Full valence occupancy:   26
 Using density fitting in orbital guess


 Initial occupancy:  25

 NELEC=   50   SYM=1   MS2= 0   THRE=1.0D-11   THRD=1.0D-06   THRG=1.0D-06  HFMA2=F  DIIS_START=2   DIIS_MAX=10   DIIS_INCORE=F

 Level shifts:    0.00 (CLOSED)    0.00 (OPEN)    0.30 (GAP_MIN)

 ITER           ETOT              DE          GRAD        DDIFF     DIIS  NEXP   TIME(IT)  TIME(TOT)  DIAG
   1     -589.32828732    -589.32828732     0.00D+00     0.14D+00     0     0       0.02      0.06    start
   2     -589.33588158      -0.00759426     0.24D-02     0.64D-02     1     0       0.02      0.08    diag
   3     -589.33844119      -0.00255961     0.16D-02     0.12D-02     2     0       0.03      0.11    diag
   4     -589.33859043      -0.00014924     0.19D-03     0.41D-03     3     0       0.02      0.13    diag
   5     -589.33860315      -0.00001272     0.55D-04     0.11D-03     4     0       0.02      0.15    diag
   6     -589.33860400      -0.00000085     0.16D-04     0.36D-04     5     0       0.02      0.17    diag
   7     -589.33860403      -0.00000003     0.24D-05     0.72D-05     6     0       0.03      0.20    diag
   8     -589.33860403      -0.00000000     0.33D-06     0.14D-05     7     0       0.02      0.22    fixocc
   9     -589.33860403      -0.00000000     0.62D-07     0.13D-06     8     0       0.03      0.25    diag
  10     -589.33860403       0.00000000     0.57D-08     0.19D-07     9     0       0.02      0.27    diag/orth
  11     -589.33860403       0.00000000     0.52D-09     0.18D-08     0     0       0.02      0.29    diag

 Final occupancy:  25

 !RHF STATE 1.1 Energy               -589.338604028513
  RHF One-electron energy           -1274.921811216048
  RHF Two-electron energy             561.503013297317
  RHF Kinetic energy                  221.649839090145
  RHF Nuclear energy                  124.080193890218
  RHF Virial quotient                  -2.658872239419

 !RHF STATE 1.1 Dipole moment          -0.00000000    -0.00000000    -0.00000000
 Dipole moment /Debye                  -0.00000000    -0.00000000    -0.00000000

 ELECTRON ORBITALS
 =================

  Orbital  Occupation    Energy    Cen Mu Typ  Coefficients
    1.1     2.00000    -7.75558     1  1  s    0.70713    2  1  s    0.70713
    2.1     2.00000    -7.75555     1  1  s    0.70715    2  1  s   -0.70715
    3.1     2.00000    -5.59092     1  1  pz   0.70524    2  1  pz  -0.70524
    4.1     2.00000    -5.59066     1  1  pz   0.70486    2  1  pz   0.70486
    5.1     2.00000    -5.57552     1  1  py   0.67867    2  1  py   0.67867
    6.1     2.00000    -5.57552     1  1  px   0.67867    2  1  px   0.67867
    7.1     2.00000    -5.57548     1  1  px   0.70437    2  1  px  -0.70437
    8.1     2.00000    -5.57548     1  1  py   0.70437    2  1  py  -0.70437
    9.1     2.00000    -2.32279     1  1  d0   0.70347    2  1  d0   0.70347
   10.1     2.00000    -2.31689     1  1  d0   0.70703    2  1  d0  -0.70703
   11.1     2.00000    -2.31447     1  1  d1+  0.48914    1  1  d1-  0.50868    2  1  d1+ -0.48914    2  1  d1- -0.50868
   12.1     2.00000    -2.31447     1  1  d1+  0.50868    1  1  d1- -0.48914    2  1  d1+ -0.50868    2  1  d1-  0.48914
   13.1     2.00000    -2.31257     1  1  d1-  0.70237    2  1  d1-  0.70237
   14.1     2.00000    -2.31257     1  1  d1+  0.70237    2  1  d1+  0.70237
   15.1     2.00000    -2.29720     1  1  d2+  0.70787    2  1  d2+  0.70787
   16.1     2.00000    -2.29720     1  1  d2-  0.70787    2  1  d2-  0.70787
   17.1     2.00000    -2.29706     1  1  d2+  0.66470    2  1  d2+ -0.66470
   18.1     2.00000    -2.29706     1  1  d2-  0.66470    2  1  d2- -0.66470
   19.1     2.00000    -0.96444     1  2  s    0.65060    2  2  s    0.65060
   20.1     2.00000    -0.84395     1  2  s    0.72324    2  2  s   -0.72324
   21.1     2.00000    -0.47184     1  2  pz   0.71042    2  2  pz  -0.71042
   22.1     2.00000    -0.43962     1  2  px   0.31624    1  2  py   0.60828    2  2  px   0.31624    2  2  py   0.60828
   23.1     2.00000    -0.43962     1  2  px   0.60828    1  2  py  -0.31624    2  2  px   0.60828    2  2  py  -0.31624
   24.1     2.00000    -0.36072     1  2  py   0.69771    2  2  py  -0.69771
   25.1     2.00000    -0.36072     1  2  px   0.69771    2  2  px  -0.69771


 HOMO     25.1    -0.360716 =      -9.8156eV
 LUMO     26.1    -0.023794 =      -0.6475eV
 LUMO-HOMO         0.336923 =       9.1681eV

 Orbitals saved in record  2100.2


 **********************************************************************************************************************************
 DATASETS  * FILE   NREC   LENGTH (MB)   RECORD NAMES
              1      19       29.08       500      610      700      900      950      970     1000      129      960     1100   
                                          VAR    BASINP    GEOM    SYMINP    ZMAT    AOBASIS   BASIS     P2S    ABASIS      S 
                                         1400     1410     1420     1200     1210     1080     1700     1600     1650   
                                           T        V       ECP      H0       H01     AOSYM    OPER      SMH    MOLCAS    

              2       4        0.52       700     1000      520     2100   
                                         GEOM     BASIS   MCVARS     RHF  

 PROGRAMS   *        TOTAL     DF-HF       INT
 CPU TIMES  *         1.09      0.60      0.35
 REAL TIME  *         2.32 SEC
 DISK USED  *        30.30 MB (local),      484.75 MB (total)
 SF USED    *         8.30 MB
 GA USED    *         0.00 MB       (max)       0.00 MB       (current)
 **********************************************************************************************************************************

 Library entry I      S VDZ-PP-F12_MP2       selected for DF group  1
 Library entry I      P VDZ-PP-F12_MP2       selected for DF group  1
 Library entry I      D VDZ-PP-F12_MP2       selected for DF group  1
 Library entry I      F VDZ-PP-F12_MP2       selected for DF group  1
 Library entry I      G VDZ-PP-F12_MP2       selected for DF group  1
 Library entry I      H VDZ-PP-F12_MP2       selected for DF group  1
 Basis set:    DF
 Basis size:   404
 Sphericals:   T
 =======================================
 Centre l       exponent    contractions
 =======================================

    1   s      43.148700      1.000000
    1   s      28.371500      1.000000
    1   s      14.953700      1.000000
    1   s       6.663560      1.000000
    1   s       4.207410      1.000000
    1   s       2.479710      1.000000
    1   s       1.152080      1.000000
    1   s       0.652358      1.000000
    1   s       0.358699      1.000000
    1   s       0.238033      1.000000
    1   s       0.092840      1.000000

    1   p      14.880900      1.000000
    1   p       8.770630      1.000000
    1   p       4.985770      1.000000
    1   p       2.437390      1.000000
    1   p       1.466490      1.000000
    1   p       0.716733      1.000000
    1   p       0.508093      1.000000
    1   p       0.299954      1.000000
    1   p       0.154362      1.000000
    1   p       0.083782      1.000000

    1   d       9.802940      1.000000
    1   d       6.209440      1.000000
    1   d       4.496220      1.000000
    1   d       2.613630      1.000000
    1   d       1.572590      1.000000
    1   d       0.843076      1.000000
    1   d       0.451684      1.000000
    1   d       0.289979      1.000000
    1   d       0.118072      1.000000

    1   f      10.027000      1.000000
    1   f       6.912370      1.000000
    1   f       2.812350      1.000000
    1   f       1.890010      1.000000
    1   f       1.166680      1.000000
    1   f       0.634040      1.000000
    1   f       0.305228      1.000000

    1   g       7.001060      1.000000
    1   g       4.165590      1.000000
    1   g       1.388060      1.000000
    1   g       0.877063      1.000000
    1   g       0.316417      1.000000

    1   h       4.250870      1.000000
    1   h       2.212550      1.000000

    2   s      43.148700      1.000000
    2   s      28.371500      1.000000
    2   s      14.953700      1.000000
    2   s       6.663560      1.000000
    2   s       4.207410      1.000000
    2   s       2.479710      1.000000
    2   s       1.152080      1.000000
    2   s       0.652358      1.000000
    2   s       0.358699      1.000000
    2   s       0.238033      1.000000
    2   s       0.092840      1.000000

    2   p      14.880900      1.000000
    2   p       8.770630      1.000000
    2   p       4.985770      1.000000
    2   p       2.437390      1.000000
    2   p       1.466490      1.000000
    2   p       0.716733      1.000000
    2   p       0.508093      1.000000
    2   p       0.299954      1.000000
    2   p       0.154362      1.000000
    2   p       0.083782      1.000000

    2   d       9.802940      1.000000
    2   d       6.209440      1.000000
    2   d       4.496220      1.000000
    2   d       2.613630      1.000000
    2   d       1.572590      1.000000
    2   d       0.843076      1.000000
    2   d       0.451684      1.000000
    2   d       0.289979      1.000000
    2   d       0.118072      1.000000

    2   f      10.027000      1.000000
    2   f       6.912370      1.000000
    2   f       2.812350      1.000000
    2   f       1.890010      1.000000
    2   f       1.166680      1.000000
    2   f       0.634040      1.000000
    2   f       0.305228      1.000000

    2   g       7.001060      1.000000
    2   g       4.165590      1.000000
    2   g       1.388060      1.000000
    2   g       0.877063      1.000000
    2   g       0.316417      1.000000

    2   h       4.250870      1.000000
    2   h       2.212550      1.000000
 =======================================

 Library entry I      S def2-QZVPP-JKFIT     selected for JK group  1
 Library entry I      P def2-QZVPP-JKFIT     selected for JK group  1
 Library entry I      D def2-QZVPP-JKFIT     selected for JK group  1
 Library entry I      F def2-QZVPP-JKFIT     selected for JK group  1
 Library entry I      G def2-QZVPP-JKFIT     selected for JK group  1
 Library entry I      H def2-QZVPP-JKFIT     selected for JK group  1
 Basis set:    JK
 Basis size:   436
 Sphericals:   T
 =======================================
 Centre l       exponent    contractions
 =======================================

    1   s      78.663624      0.022672
    1   s      48.541031     -0.181523
    1   s      29.953789      0.983125

    1   s      18.484236      1.000000
    1   s      11.406634      1.000000
    1   s       7.039130      1.000000
    1   s       4.343955      1.000000
    1   s       2.680746      1.000000
    1   s       1.654357      1.000000
    1   s       1.020952      1.000000
    1   s       0.630062      1.000000
    1   s       0.388833      1.000000
    1   s       0.239962      1.000000

    1   p      58.564944      0.000048
    1   p      32.524986      0.091692
    1   p      18.063613     -0.995787

    1   p      10.032273      1.000000
    1   p       5.571864      1.000000
    1   p       3.094619      1.000000
    1   p       1.718773      1.000000
    1   p       0.954627      1.000000
    1   p       0.530215      1.000000
    1   p       0.294491      1.000000
    1   p       0.163566      1.000000
    1   p       0.090848      1.000000

    1   d      36.660417      0.038285
    1   d      20.124038      0.999267

    1   d      11.073863      1.000000
    1   d       6.106976      1.000000
    1   d       3.374211      1.000000
    1   d       1.867293      1.000000
    1   d       1.034717      1.000000
    1   d       0.573949      1.000000
    1   d       0.318597      1.000000
    1   d       0.176930      1.000000
    1   d       0.098270      1.000000

    1   f      23.924299      0.000522
    1   f      12.079185      1.000000

    1   f       6.098816      1.000000
    1   f       3.079365      1.000000
    1   f       1.524193      1.000000
    1   f       0.769601      1.000000
    1   f       0.396403      1.000000
    1   f       0.200155      1.000000

    1   g      13.390089      0.036145
    1   g       6.828545      0.999347

    1   g       3.447896      1.000000
    1   g       1.591489      1.000000
    1   g       0.700448      1.000000
    1   g       0.239527      1.000000

    1   h       6.009272      1.000000
    1   h       2.163197      1.000000
    1   h       0.778700      1.000000

    2   s      78.663624      0.022672
    2   s      48.541031     -0.181523
    2   s      29.953789      0.983125

    2   s      18.484236      1.000000
    2   s      11.406634      1.000000
    2   s       7.039130      1.000000
    2   s       4.343955      1.000000
    2   s       2.680746      1.000000
    2   s       1.654357      1.000000
    2   s       1.020952      1.000000
    2   s       0.630062      1.000000
    2   s       0.388833      1.000000
    2   s       0.239962      1.000000

    2   p      58.564944      0.000048
    2   p      32.524986      0.091692
    2   p      18.063613     -0.995787

    2   p      10.032273      1.000000
    2   p       5.571864      1.000000
    2   p       3.094619      1.000000
    2   p       1.718773      1.000000
    2   p       0.954627      1.000000
    2   p       0.530215      1.000000
    2   p       0.294491      1.000000
    2   p       0.163566      1.000000
    2   p       0.090848      1.000000

    2   d      36.660417      0.038285
    2   d      20.124038      0.999267

    2   d      11.073863      1.000000
    2   d       6.106976      1.000000
    2   d       3.374211      1.000000
    2   d       1.867293      1.000000
    2   d       1.034717      1.000000
    2   d       0.573949      1.000000
    2   d       0.318597      1.000000
    2   d       0.176930      1.000000
    2   d       0.098270      1.000000

    2   f      23.924299      0.000522
    2   f      12.079185      1.000000

    2   f       6.098816      1.000000
    2   f       3.079365      1.000000
    2   f       1.524193      1.000000
    2   f       0.769601      1.000000
    2   f       0.396403      1.000000
    2   f       0.200155      1.000000

    2   g      13.390089      0.036145
    2   g       6.828545      0.999347

    2   g       3.447896      1.000000
    2   g       1.591489      1.000000
    2   g       0.700448      1.000000
    2   g       0.239527      1.000000

    2   h       6.009272      1.000000
    2   h       2.163197      1.000000
    2   h       0.778700      1.000000
 =======================================

 Library entry I      S def2-QZVPP-JKFIT     selected for RI group  1
 Library entry I      P def2-QZVPP-JKFIT     selected for RI group  1
 Library entry I      D def2-QZVPP-JKFIT     selected for RI group  1
 Library entry I      F def2-QZVPP-JKFIT     selected for RI group  1
 Library entry I      G def2-QZVPP-JKFIT     selected for RI group  1
 Library entry I      H def2-QZVPP-JKFIT     selected for RI group  1
 Basis set:    RI
 Basis size:   436
 Sphericals:   T
 =======================================
 Centre l       exponent    contractions
 =======================================

    1   s      78.663624      0.022672
    1   s      48.541031     -0.181523
    1   s      29.953789      0.983125

    1   s      18.484236      1.000000
    1   s      11.406634      1.000000
    1   s       7.039130      1.000000
    1   s       4.343955      1.000000
    1   s       2.680746      1.000000
    1   s       1.654357      1.000000
    1   s       1.020952      1.000000
    1   s       0.630062      1.000000
    1   s       0.388833      1.000000
    1   s       0.239962      1.000000

    1   p      58.564944      0.000048
    1   p      32.524986      0.091692
    1   p      18.063613     -0.995787

    1   p      10.032273      1.000000
    1   p       5.571864      1.000000
    1   p       3.094619      1.000000
    1   p       1.718773      1.000000
    1   p       0.954627      1.000000
    1   p       0.530215      1.000000
    1   p       0.294491      1.000000
    1   p       0.163566      1.000000
    1   p       0.090848      1.000000

    1   d      36.660417      0.038285
    1   d      20.124038      0.999267

    1   d      11.073863      1.000000
    1   d       6.106976      1.000000
    1   d       3.374211      1.000000
    1   d       1.867293      1.000000
    1   d       1.034717      1.000000
    1   d       0.573949      1.000000
    1   d       0.318597      1.000000
    1   d       0.176930      1.000000
    1   d       0.098270      1.000000

    1   f      23.924299      0.000522
    1   f      12.079185      1.000000

    1   f       6.098816      1.000000
    1   f       3.079365      1.000000
    1   f       1.524193      1.000000
    1   f       0.769601      1.000000
    1   f       0.396403      1.000000
    1   f       0.200155      1.000000

    1   g      13.390089      0.036145
    1   g       6.828545      0.999347

    1   g       3.447896      1.000000
    1   g       1.591489      1.000000
    1   g       0.700448      1.000000
    1   g       0.239527      1.000000

    1   h       6.009272      1.000000
    1   h       2.163197      1.000000
    1   h       0.778700      1.000000

    2   s      78.663624      0.022672
    2   s      48.541031     -0.181523
    2   s      29.953789      0.983125

    2   s      18.484236      1.000000
    2   s      11.406634      1.000000
    2   s       7.039130      1.000000
    2   s       4.343955      1.000000
    2   s       2.680746      1.000000
    2   s       1.654357      1.000000
    2   s       1.020952      1.000000
    2   s       0.630062      1.000000
    2   s       0.388833      1.000000
    2   s       0.239962      1.000000

    2   p      58.564944      0.000048
    2   p      32.524986      0.091692
    2   p      18.063613     -0.995787

    2   p      10.032273      1.000000
    2   p       5.571864      1.000000
    2   p       3.094619      1.000000
    2   p       1.718773      1.000000
    2   p       0.954627      1.000000
    2   p       0.530215      1.000000
    2   p       0.294491      1.000000
    2   p       0.163566      1.000000
    2   p       0.090848      1.000000

    2   d      36.660417      0.038285
    2   d      20.124038      0.999267

    2   d      11.073863      1.000000
    2   d       6.106976      1.000000
    2   d       3.374211      1.000000
    2   d       1.867293      1.000000
    2   d       1.034717      1.000000
    2   d       0.573949      1.000000
    2   d       0.318597      1.000000
    2   d       0.176930      1.000000
    2   d       0.098270      1.000000

    2   f      23.924299      0.000522
    2   f      12.079185      1.000000

    2   f       6.098816      1.000000
    2   f       3.079365      1.000000
    2   f       1.524193      1.000000
    2   f       0.769601      1.000000
    2   f       0.396403      1.000000
    2   f       0.200155      1.000000

    2   g      13.390089      0.036145
    2   g       6.828545      0.999347

    2   g       3.447896      1.000000
    2   g       1.591489      1.000000
    2   g       0.700448      1.000000
    2   g       0.239527      1.000000

    2   h       6.009272      1.000000
    2   h       2.163197      1.000000
    2   h       0.778700      1.000000
 =======================================


 PROGRAM * MP2 (Closed-shell)     Authors: C. Hampel, H.-J. Werner, 1991, M. Deegan, P.J. Knowles, 1992

                                   MP2-F12 implementation by H.-J. Werner, 2007

                   Density fitting integral evaluation by F.R. Manby, 2003,2007, G. Knizia, 2010



 Convergence thresholds:  THRVAR = 1.00D-08  THRDEN = 1.00D-09

 Number of core orbitals:          18 (  18 )
 Number of closed-shell orbitals:   7 (   7 )
 Number of external orbitals:      71 (  71 )

 Molecular orbitals read from record     2100.2  Type=RHF/CANONICAL  

 MP2-F12 correlation treatment (H.-J. Werner, 2006)
 ==================================================

 Some Fock operators are calculated for F12-singles only.

 AO(A)-basis ORBITAL           loaded. Number of functions:      96
 RI(R)-basis RI                loaded. Number of functions:     436
 Basis set JK loaded. Number of basis functions: 436 
 DF-basis JK                   loaded. Number of functions:     436

 Screening thresholds:   THRAO=  1.00D-10  THRMO=  1.00D-09  THRPROD=  1.00D-09
                         THRSW=  1.00D-05  THROV=  1.00D-12  THRAOF12= 1.00D-08

 CPU time for Fock operators                      0.66 sec

 Construction of ABS:
 Smallest eigenvalue of S          1.30E-06  (threshold= 1.00E-09)
 Ratio eigmin/eigmax               1.83E-07  (threshold= 1.00E-09)
 Smallest eigenvalue of S kept     1.30E-06  (threshold= 1.30E-06, 0 functions deleted, 436 kept)

 Construction of CABS:
 Smallest eigenvalue of S          7.05E-10  (threshold= 1.00E-09)
 Ratio eigmin/eigmax               7.05E-10  (threshold= 1.00E-09)
 Smallest eigenvalue of S kept     4.99E-09  (threshold= 4.99E-09, 2 functions deleted, 434 kept)

 CPU time for CABS singles                        0.06 sec

 CABS-singles contribution of  -0.00829915 patched into reference energy.
 New reference energy        -589.34690318

 Leaving lmp2-f12 by request (CABS_SINGLES < 0) after calculation of singles.


  Reference energy                   -589.338604028514
  F12 singles correction               -0.008299149835

 F12 singles corrections added to reference energy

  New reference energy               -589.346903178349

  F12 singlet correction                0.000000000000
  F12 triplet correction                0.000000000000
  F12 total correction                  0.000000000000
  MP2-F12 singlet pair energy           0.000000000000
  MP2-F12 triplet pair energy           0.000000000000
  MP2-F12 correlation energy            0.000000000000

 !MP2-F12 total energy               -589.346903178349


 **********************************************************************************************************************************
 DATASETS  * FILE   NREC   LENGTH (MB)   RECORD NAMES
              1      19       29.08       500      610      700      900      950      970     1000      129      960     1100   
                                          VAR    BASINP    GEOM    SYMINP    ZMAT    AOBASIS   BASIS     P2S    ABASIS      S 
                                         1400     1410     1420     1200     1210     1080     1700     1600     1650   
                                           T        V       ECP      H0       H01     AOSYM    OPER      SMH    MOLCAS    

              2       5        0.64       700     1000      520     2100     7360   
                                         GEOM     BASIS   MCVARS     RHF    F12ABS    

 PROGRAMS   *        TOTAL   DF-CABS     DF-HF       INT
 CPU TIMES  *         1.92      0.83      0.60      0.35
 REAL TIME  *         3.25 SEC
 DISK USED  *        30.30 MB (local),      484.75 MB (total)
 SF USED    *       182.55 MB
 GA USED    *         3.05 MB       (max)       0.00 MB       (current)
 **********************************************************************************************************************************

 DF-CABS/cc-pVDZ-PP-F12 energy=   -589.346903178349

         DF-CABS           DF-HF
   -589.34690318   -589.33860403
 **********************************************************************************************************************************
 Molpro calculation terminated
