
 Working directory              : /scratch/emmanous/3821499.pbs01/molpro.Qh2R5sxCXt/
 Global scratch directory       : /scratch/emmanous/3821499.pbs01/molpro.Qh2R5sxCXt/
 Wavefunction directory         : /home/emmanous/wfu/
 Main file repository           : /scratch/emmanous/3821499.pbs01/molpro.Qh2R5sxCXt/

 id        : wis

 Nodes     nprocs
 cff051      16
 GA implementation: MPI file
 GA implementation (serial work in mppx): MPI file

 Using DEFAULT tuning parameter for ncache   :   16384
 Using DEFAULT tuning parameter for mflopdgm :   10000
 Using DEFAULT tuning parameter for mflopdgv :    4000
 Using DEFAULT tuning parameter for mflopmxm :    5000
 Using DEFAULT tuning parameter for mflopmxv :    4000
 Using DEFAULT tuning parameter for mindgm   :       1
 Using DEFAULT tuning parameter for mindgc   :       4
 Using DEFAULT tuning parameter for mindgf   :    5000
 Using DEFAULT tuning parameter for mindgl   :       4
 Using DEFAULT tuning parameter for mindgr   :       1
 Using DEFAULT tuning parameter for mindgv   :      20
 Using DEFAULT tuning parameter for mincuda  :     500
 Using DEFAULT tuning parameter for mxmblk   :      64
 Using DEFAULT tuning parameter for mxmbln   :      64
 Using DEFAULT tuning parameter for nroll    :       2
 Using custom tuning parameter for ngpus     :       0
 Using customized tuning parameters: mindgm=1; mindgv=20; mindgc=4; mindgr=1; noblas=0; minvec=7

 Fortran compiler: integer size=8, double size=8, logical size=8
 default implementation of scratch files=sf  


 Variables initialized (1025), CPU time= 0.01 sec
 gprint,basis
 gthresh,energy=1d-9
 ANGSTROM
 geomtyp=xyz
 charge=0
 multiplicity=1
 nosym
 geom={
 Cl ,0.0000 ,0.0000 ,0.0000
 Cl ,0.0000 ,0.0000 ,1.9879
 }
 
 basis={
 default,cc-pVTZ-F12
 set,df
 default,cc-pVTZ-F12/MP2Fit
 set,jk
 default,cc-pVTZ-F12/JKFIT
 set,ri
 default,cc-pVTZ-F12/OptRI
 }
 {df-hf,df_basis=jk
 wf,,,$multiplicity-1
 print,orbitals
 maxit,300}
 {df-cabs,gem_beta=0.9,df_basis=df,df_basis_exch=jk,ri_basis=ri,thrcabs=1d-9,thrcabs_rel=1d-9;explicit,ignore_bad_singl=1}
 Commands initialized (840), CPU time= 0.01 sec, 684 directives.
 Default parameters read. Elapsed time= 0.08 sec

 Using DEFAULT tuning parameter for mpplat   :       3
 Using DEFAULT tuning parameter for mppspeed :    1600
 Checking input...
 Passed
1


                                         ***  PROGRAM SYSTEM MOLPRO  ***
                                       Copyright, TTI GmbH Stuttgart, 2015
                                    Version 2022.3 linked Wed Nov 30 13:40:34 2022


 **********************************************************************************************************************************
 LABEL *                                                                                 
  64 bit mpp version                                                                     DATE: 13-Jul-23          TIME: 08:59:14  
 **********************************************************************************************************************************

 SHA1:             e31ec9a5ea85254ab76f59d122cbdd51c71cf98b
 **********************************************************************************************************************************

 Memory per process:      1000 MW
 Total memory per node:  16000 MW

 GA preallocation disabled
 GA check disabled

 Variable memory set to 1000.0 MW



 THRESHOLDS:

 ZERO    =  1.00D-12  ONEINT  =  1.00D-12  TWOINT  =  1.00D-11  PREFAC  =  1.00D-14  XXXXXX  =  1.00D-09  EORDER  =  1.00D-04
 ENERGY  =  1.00D-09  ETEST   =  0.00D+00  EDENS   =  0.00D+00  THRDEDEF=  1.00D-06  GRADIENT=  1.00D-05  STEP    =  1.00D-03
 ORBITAL =  1.00D-05  CIVEC   =  1.00D-05  COEFF   =  1.00D-04  PRINTCI =  5.00D-02  PUNCHCI =  9.90D+01  OPTGRAD =  3.00D-04
 OPTENERG=  1.00D-06  OPTSTEP =  3.00D-04  THRGRAD =  1.00D-10  COMPRESS=  1.00D-11  VARMIN  =  1.00D-07  VARMAX  =  1.00D-03
 THRDOUB =  0.00D+00  THRDIV  =  1.00D-05  THRRED  =  1.00D-07  THRPSP  =  1.00D+00  THRDC   =  1.00D-10  THRCS   =  1.00D-10
 THRNRM  =  1.00D-08  THREQ   =  0.00D+00  THRDE   =  1.00D+00  THRREF  =  1.00D-05  SPARFAC =  1.00D+00  THRDLP  =  1.00D-07
 THRDIA  =  1.00D-10  THRDLS  =  1.00D-07  THRGPS  =  0.00D+00  THRKEX  =  0.00D+00  THRDIS  =  2.00D-01  THRVAR  =  1.00D-10
 THRLOC  =  1.00D-06  THRGAP  =  1.00D-06  THRLOCT = -1.00D+00  THRGAPT = -1.00D+00  THRORB  =  1.00D-06  THRMLTP =  0.00D+00
 THRCPQCI=  1.00D-10  KEXTA   =  0.00D+00  THRCOARS=  0.00D+00  SYMTOL  =  1.00D-06  GRADTOL =  1.00D-06  THROVL  =  1.00D-08
 THRORTH =  1.00D-08  THRDLOVL= -1.00D+00  GRID    =  1.00D-06  GRIDMAX =  1.00D-03  DTMAX   =  0.00D+00  THROCCDE=  1.00D-01
 THROCCDE=  1.00D-01  THRPRINT=  2.50D-01

 SETTING GEOMTYP        =    XYZ
 SETTING CHARGE         =      0.0000000D+00                                  
 SETTING MULTIPLICITY   =         1.00000000                                  
 ZSYMEL=NOSYM
 ZUNIT=ANG

 SETTING BASIS          =    CC-PVTZ-F12


 Recomputing integrals since basis changed


 Using spherical harmonics

 Library entry CL     S cc-pVTZ-F12          selected for orbital group  1
 Library entry CL     P cc-pVTZ-F12          selected for orbital group  1
 Library entry CL     D cc-pVTZ-F12          selected for orbital group  1
 Library entry CL     F cc-pVTZ-F12          selected for orbital group  1


 PROGRAM * SEWARD (Integral evaluation for generally contracted gaussian basis sets)     Author: Roland Lindh, 1990

 Geometry written to block  1 of record 700


 Point group  C1  



 ATOMIC COORDINATES

 NR  ATOM    CHARGE       X              Y              Z

   1  CL     17.00    0.000000000    0.000000000    0.000000000
   2  CL     17.00    0.000000000    0.000000000    3.756586563

 Bond lengths in Bohr (Angstrom)

 1-2  3.756586563
     ( 1.987900000)


 BASIS DATA

   Nr Sym  Nuc  Type         Exponents   Contraction coefficients

    1.1 A     1  1s      834900.000000     0.000023   -0.000006    0.000002    0.000000    0.000000    0.000000
    2.1 A                125000.000000     0.000180   -0.000050    0.000015    0.000000    0.000000    0.000000
    3.1 A                 28430.000000     0.000948   -0.000266    0.000081    0.000000    0.000000    0.000000
    4.1 A                  8033.000000     0.004001   -0.001125    0.000340    0.000000    0.000000    0.000000
    5.1 A                  2608.000000     0.014463   -0.004105    0.001246    0.000000    0.000000    0.000000
    6.1 A                   933.900000     0.045659   -0.013199    0.003996    0.000000    0.000000    0.000000
                            360.000000     0.123248   -0.037534    0.011475    0.000000    0.000000    0.000000
                            147.000000     0.264369   -0.089723    0.027550    0.000000    0.000000    0.000000
                             62.880000     0.382989   -0.167671    0.053292    0.000000    0.000000    0.000000
                             27.600000     0.270934   -0.174763    0.057125    0.000000    0.000000    0.000000
                             11.080000     0.047140    0.114909   -0.039520    0.000000    0.000000    0.000000
                              5.075000    -0.003718    0.563618   -0.264343    0.000000    0.000000    0.000000
                              2.278000     0.002192    0.441606   -0.349291    0.000000    0.000000    0.000000
                              0.777500    -0.000850    0.042670    0.269671    1.000000    0.000000    0.000000
                              0.352700     0.000425   -0.006672    0.676073    0.000000    1.000000    0.000000
                              0.143100    -0.000120    0.001907    0.284679    0.000000    0.000000    1.000000
    7.1 A     1  1s           0.051900     1.000000
    8.1 A     1  2px       1703.000000     0.000474
                            403.600000     0.004064
                            130.300000     0.021336
                             49.050000     0.079461
                             20.260000     0.208927
                              8.787000     0.364945
                              3.919000     0.371725
                              1.765000     0.146292
                              0.720700     0.010791
                              0.283900     0.001170
                              0.106000     0.000339
    9.1 A     1  2py       1703.000000     0.000474
                            403.600000     0.004064
                            130.300000     0.021336
                             49.050000     0.079461
                             20.260000     0.208927
                              8.787000     0.364945
                              3.919000     0.371725
                              1.765000     0.146292
                              0.720700     0.010791
                              0.283900     0.001170
                              0.106000     0.000339
   10.1 A     1  2pz       1703.000000     0.000474
                            403.600000     0.004064
                            130.300000     0.021336
                             49.050000     0.079461
                             20.260000     0.208927
                              8.787000     0.364945
                              3.919000     0.371725
                              1.765000     0.146292
                              0.720700     0.010791
                              0.283900     0.001170
                              0.106000     0.000339
   11.1 A     1  2px       1703.000000    -0.000128
                            403.600000    -0.001094
                            130.300000    -0.005834
                             49.050000    -0.021926
                             20.260000    -0.060138
                              8.787000    -0.106929
                              3.919000    -0.122454
                              1.765000     0.038362
                              0.720700     0.385256
                              0.283900     0.507265
                              0.106000     0.227218
   12.1 A     1  2py       1703.000000    -0.000128
                            403.600000    -0.001094
                            130.300000    -0.005834
                             49.050000    -0.021926
                             20.260000    -0.060138
                              8.787000    -0.106929
                              3.919000    -0.122454
                              1.765000     0.038362
                              0.720700     0.385256
                              0.283900     0.507265
                              0.106000     0.227218
   13.1 A     1  2pz       1703.000000    -0.000128
                            403.600000    -0.001094
                            130.300000    -0.005834
                             49.050000    -0.021926
                             20.260000    -0.060138
                              8.787000    -0.106929
                              3.919000    -0.122454
                              1.765000     0.038362
                              0.720700     0.385256
                              0.283900     0.507265
                              0.106000     0.227218
   14.1 A     1  2px       1703.000000     0.000000
                            403.600000     0.000000
                            130.300000     0.000000
                             49.050000     0.000000
                             20.260000     0.000000
                              8.787000     0.000000
                              3.919000     0.000000
                              1.765000     0.000000
                              0.720700     1.000000
                              0.283900     0.000000
                              0.106000     0.000000
   15.1 A     1  2py       1703.000000     0.000000
                            403.600000     0.000000
                            130.300000     0.000000
                             49.050000     0.000000
                             20.260000     0.000000
                              8.787000     0.000000
                              3.919000     0.000000
                              1.765000     0.000000
                              0.720700     1.000000
                              0.283900     0.000000
                              0.106000     0.000000
   16.1 A     1  2pz       1703.000000     0.000000
                            403.600000     0.000000
                            130.300000     0.000000
                             49.050000     0.000000
                             20.260000     0.000000
                              8.787000     0.000000
                              3.919000     0.000000
                              1.765000     0.000000
                              0.720700     1.000000
                              0.283900     0.000000
                              0.106000     0.000000
   17.1 A     1  2px       1703.000000     0.000000
                            403.600000     0.000000
                            130.300000     0.000000
                             49.050000     0.000000
                             20.260000     0.000000
                              8.787000     0.000000
                              3.919000     0.000000
                              1.765000     0.000000
                              0.720700     0.000000
                              0.283900     1.000000
                              0.106000     0.000000
   18.1 A     1  2py       1703.000000     0.000000
                            403.600000     0.000000
                            130.300000     0.000000
                             49.050000     0.000000
                             20.260000     0.000000
                              8.787000     0.000000
                              3.919000     0.000000
                              1.765000     0.000000
                              0.720700     0.000000
                              0.283900     1.000000
                              0.106000     0.000000
   19.1 A     1  2pz       1703.000000     0.000000
                            403.600000     0.000000
                            130.300000     0.000000
                             49.050000     0.000000
                             20.260000     0.000000
                              8.787000     0.000000
                              3.919000     0.000000
                              1.765000     0.000000
                              0.720700     0.000000
                              0.283900     1.000000
                              0.106000     0.000000
   20.1 A     1  2px       1703.000000     0.000000
                            403.600000     0.000000
                            130.300000     0.000000
                             49.050000     0.000000
                             20.260000     0.000000
                              8.787000     0.000000
                              3.919000     0.000000
                              1.765000     0.000000
                              0.720700     0.000000
                              0.283900     0.000000
                              0.106000     1.000000
   21.1 A     1  2py       1703.000000     0.000000
                            403.600000     0.000000
                            130.300000     0.000000
                             49.050000     0.000000
                             20.260000     0.000000
                              8.787000     0.000000
                              3.919000     0.000000
                              1.765000     0.000000
                              0.720700     0.000000
                              0.283900     0.000000
                              0.106000     1.000000
   22.1 A     1  2pz       1703.000000     0.000000
                            403.600000     0.000000
                            130.300000     0.000000
                             49.050000     0.000000
                             20.260000     0.000000
                              8.787000     0.000000
                              3.919000     0.000000
                              1.765000     0.000000
                              0.720700     0.000000
                              0.283900     0.000000
                              0.106000     1.000000
   23.1 A     1  2px          0.037600     1.000000
   24.1 A     1  2py          0.037600     1.000000
   25.1 A     1  2pz          0.037600     1.000000
   26.1 A     1  2px          5.648800     1.000000
   27.1 A     1  2py          5.648800     1.000000
   28.1 A     1  2pz          5.648800     1.000000
   29.1 A     1  3d0         10.399000     1.000000
   30.1 A     1  3d2-        10.399000     1.000000
   31.1 A     1  3d1+        10.399000     1.000000
   32.1 A     1  3d2+        10.399000     1.000000
   33.1 A     1  3d1-        10.399000     1.000000
   34.1 A     1  3d0          2.410100     1.000000
   35.1 A     1  3d2-         2.410100     1.000000
   36.1 A     1  3d1+         2.410100     1.000000
   37.1 A     1  3d2+         2.410100     1.000000
   38.1 A     1  3d1-         2.410100     1.000000
   39.1 A     1  3d0          0.666400     1.000000
   40.1 A     1  3d2-         0.666400     1.000000
   41.1 A     1  3d1+         0.666400     1.000000
   42.1 A     1  3d2+         0.666400     1.000000
   43.1 A     1  3d1-         0.666400     1.000000
   44.1 A     1  3d0          0.244200     1.000000
   45.1 A     1  3d2-         0.244200     1.000000
   46.1 A     1  3d1+         0.244200     1.000000
   47.1 A     1  3d2+         0.244200     1.000000
   48.1 A     1  3d1-         0.244200     1.000000
   49.1 A     1  4f1+         0.866200     1.000000
   50.1 A     1  4f1-         0.866200     1.000000
   51.1 A     1  4f0          0.866200     1.000000
   52.1 A     1  4f3+         0.866200     1.000000
   53.1 A     1  4f2-         0.866200     1.000000
   54.1 A     1  4f3-         0.866200     1.000000
   55.1 A     1  4f2+         0.866200     1.000000
   56.1 A     1  4f1+         0.328900     1.000000
   57.1 A     1  4f1-         0.328900     1.000000
   58.1 A     1  4f0          0.328900     1.000000
   59.1 A     1  4f3+         0.328900     1.000000
   60.1 A     1  4f2-         0.328900     1.000000
   61.1 A     1  4f3-         0.328900     1.000000
   62.1 A     1  4f2+         0.328900     1.000000
   63.1 A     2  1s      834900.000000     0.000023   -0.000006    0.000002    0.000000    0.000000    0.000000
   64.1 A                125000.000000     0.000180   -0.000050    0.000015    0.000000    0.000000    0.000000
   65.1 A                 28430.000000     0.000948   -0.000266    0.000081    0.000000    0.000000    0.000000
   66.1 A                  8033.000000     0.004001   -0.001125    0.000340    0.000000    0.000000    0.000000
   67.1 A                  2608.000000     0.014463   -0.004105    0.001246    0.000000    0.000000    0.000000
   68.1 A                   933.900000     0.045659   -0.013199    0.003996    0.000000    0.000000    0.000000
                            360.000000     0.123248   -0.037534    0.011475    0.000000    0.000000    0.000000
                            147.000000     0.264369   -0.089723    0.027550    0.000000    0.000000    0.000000
                             62.880000     0.382989   -0.167671    0.053292    0.000000    0.000000    0.000000
                             27.600000     0.270934   -0.174763    0.057125    0.000000    0.000000    0.000000
                             11.080000     0.047140    0.114909   -0.039520    0.000000    0.000000    0.000000
                              5.075000    -0.003718    0.563618   -0.264343    0.000000    0.000000    0.000000
                              2.278000     0.002192    0.441606   -0.349291    0.000000    0.000000    0.000000
                              0.777500    -0.000850    0.042670    0.269671    1.000000    0.000000    0.000000
                              0.352700     0.000425   -0.006672    0.676073    0.000000    1.000000    0.000000
                              0.143100    -0.000120    0.001907    0.284679    0.000000    0.000000    1.000000
   69.1 A     2  1s           0.051900     1.000000
   70.1 A     2  2px       1703.000000     0.000474
                            403.600000     0.004064
                            130.300000     0.021336
                             49.050000     0.079461
                             20.260000     0.208927
                              8.787000     0.364945
                              3.919000     0.371725
                              1.765000     0.146292
                              0.720700     0.010791
                              0.283900     0.001170
                              0.106000     0.000339
   71.1 A     2  2py       1703.000000     0.000474
                            403.600000     0.004064
                            130.300000     0.021336
                             49.050000     0.079461
                             20.260000     0.208927
                              8.787000     0.364945
                              3.919000     0.371725
                              1.765000     0.146292
                              0.720700     0.010791
                              0.283900     0.001170
                              0.106000     0.000339
   72.1 A     2  2pz       1703.000000     0.000474
                            403.600000     0.004064
                            130.300000     0.021336
                             49.050000     0.079461
                             20.260000     0.208927
                              8.787000     0.364945
                              3.919000     0.371725
                              1.765000     0.146292
                              0.720700     0.010791
                              0.283900     0.001170
                              0.106000     0.000339
   73.1 A     2  2px       1703.000000    -0.000128
                            403.600000    -0.001094
                            130.300000    -0.005834
                             49.050000    -0.021926
                             20.260000    -0.060138
                              8.787000    -0.106929
                              3.919000    -0.122454
                              1.765000     0.038362
                              0.720700     0.385256
                              0.283900     0.507265
                              0.106000     0.227218
   74.1 A     2  2py       1703.000000    -0.000128
                            403.600000    -0.001094
                            130.300000    -0.005834
                             49.050000    -0.021926
                             20.260000    -0.060138
                              8.787000    -0.106929
                              3.919000    -0.122454
                              1.765000     0.038362
                              0.720700     0.385256
                              0.283900     0.507265
                              0.106000     0.227218
   75.1 A     2  2pz       1703.000000    -0.000128
                            403.600000    -0.001094
                            130.300000    -0.005834
                             49.050000    -0.021926
                             20.260000    -0.060138
                              8.787000    -0.106929
                              3.919000    -0.122454
                              1.765000     0.038362
                              0.720700     0.385256
                              0.283900     0.507265
                              0.106000     0.227218
   76.1 A     2  2px       1703.000000     0.000000
                            403.600000     0.000000
                            130.300000     0.000000
                             49.050000     0.000000
                             20.260000     0.000000
                              8.787000     0.000000
                              3.919000     0.000000
                              1.765000     0.000000
                              0.720700     1.000000
                              0.283900     0.000000
                              0.106000     0.000000
   77.1 A     2  2py       1703.000000     0.000000
                            403.600000     0.000000
                            130.300000     0.000000
                             49.050000     0.000000
                             20.260000     0.000000
                              8.787000     0.000000
                              3.919000     0.000000
                              1.765000     0.000000
                              0.720700     1.000000
                              0.283900     0.000000
                              0.106000     0.000000
   78.1 A     2  2pz       1703.000000     0.000000
                            403.600000     0.000000
                            130.300000     0.000000
                             49.050000     0.000000
                             20.260000     0.000000
                              8.787000     0.000000
                              3.919000     0.000000
                              1.765000     0.000000
                              0.720700     1.000000
                              0.283900     0.000000
                              0.106000     0.000000
   79.1 A     2  2px       1703.000000     0.000000
                            403.600000     0.000000
                            130.300000     0.000000
                             49.050000     0.000000
                             20.260000     0.000000
                              8.787000     0.000000
                              3.919000     0.000000
                              1.765000     0.000000
                              0.720700     0.000000
                              0.283900     1.000000
                              0.106000     0.000000
   80.1 A     2  2py       1703.000000     0.000000
                            403.600000     0.000000
                            130.300000     0.000000
                             49.050000     0.000000
                             20.260000     0.000000
                              8.787000     0.000000
                              3.919000     0.000000
                              1.765000     0.000000
                              0.720700     0.000000
                              0.283900     1.000000
                              0.106000     0.000000
   81.1 A     2  2pz       1703.000000     0.000000
                            403.600000     0.000000
                            130.300000     0.000000
                             49.050000     0.000000
                             20.260000     0.000000
                              8.787000     0.000000
                              3.919000     0.000000
                              1.765000     0.000000
                              0.720700     0.000000
                              0.283900     1.000000
                              0.106000     0.000000
   82.1 A     2  2px       1703.000000     0.000000
                            403.600000     0.000000
                            130.300000     0.000000
                             49.050000     0.000000
                             20.260000     0.000000
                              8.787000     0.000000
                              3.919000     0.000000
                              1.765000     0.000000
                              0.720700     0.000000
                              0.283900     0.000000
                              0.106000     1.000000
   83.1 A     2  2py       1703.000000     0.000000
                            403.600000     0.000000
                            130.300000     0.000000
                             49.050000     0.000000
                             20.260000     0.000000
                              8.787000     0.000000
                              3.919000     0.000000
                              1.765000     0.000000
                              0.720700     0.000000
                              0.283900     0.000000
                              0.106000     1.000000
   84.1 A     2  2pz       1703.000000     0.000000
                            403.600000     0.000000
                            130.300000     0.000000
                             49.050000     0.000000
                             20.260000     0.000000
                              8.787000     0.000000
                              3.919000     0.000000
                              1.765000     0.000000
                              0.720700     0.000000
                              0.283900     0.000000
                              0.106000     1.000000
   85.1 A     2  2px          0.037600     1.000000
   86.1 A     2  2py          0.037600     1.000000
   87.1 A     2  2pz          0.037600     1.000000
   88.1 A     2  2px          5.648800     1.000000
   89.1 A     2  2py          5.648800     1.000000
   90.1 A     2  2pz          5.648800     1.000000
   91.1 A     2  3d0         10.399000     1.000000
   92.1 A     2  3d2-        10.399000     1.000000
   93.1 A     2  3d1+        10.399000     1.000000
   94.1 A     2  3d2+        10.399000     1.000000
   95.1 A     2  3d1-        10.399000     1.000000
   96.1 A     2  3d0          2.410100     1.000000
   97.1 A     2  3d2-         2.410100     1.000000
   98.1 A     2  3d1+         2.410100     1.000000
   99.1 A     2  3d2+         2.410100     1.000000
  100.1 A     2  3d1-         2.410100     1.000000
  101.1 A     2  3d0          0.666400     1.000000
  102.1 A     2  3d2-         0.666400     1.000000
  103.1 A     2  3d1+         0.666400     1.000000
  104.1 A     2  3d2+         0.666400     1.000000
  105.1 A     2  3d1-         0.666400     1.000000
  106.1 A     2  3d0          0.244200     1.000000
  107.1 A     2  3d2-         0.244200     1.000000
  108.1 A     2  3d1+         0.244200     1.000000
  109.1 A     2  3d2+         0.244200     1.000000
  110.1 A     2  3d1-         0.244200     1.000000
  111.1 A     2  4f1+         0.866200     1.000000
  112.1 A     2  4f1-         0.866200     1.000000
  113.1 A     2  4f0          0.866200     1.000000
  114.1 A     2  4f3+         0.866200     1.000000
  115.1 A     2  4f2-         0.866200     1.000000
  116.1 A     2  4f3-         0.866200     1.000000
  117.1 A     2  4f2+         0.866200     1.000000
  118.1 A     2  4f1+         0.328900     1.000000
  119.1 A     2  4f1-         0.328900     1.000000
  120.1 A     2  4f0          0.328900     1.000000
  121.1 A     2  4f3+         0.328900     1.000000
  122.1 A     2  4f2-         0.328900     1.000000
  123.1 A     2  4f3-         0.328900     1.000000
  124.1 A     2  4f2+         0.328900     1.000000

 NUCLEAR CHARGE:                   34
 NUMBER OF PRIMITIVE AOS:         200
 NUMBER OF SYMMETRY AOS:          180
 NUMBER OF CONTRACTIONS:          124   (  124A   )
 NUMBER OF INNER CORE ORBITALS:     2   (    2A   )
 NUMBER OF OUTER CORE ORBITALS:     8   (    8A   )
 NUMBER OF VALENCE ORBITALS:        8   (    8A   )


 NUCLEAR REPULSION ENERGY   76.93154281


 Library entry CL     S aug-cc-pVTZ-MP2F     selected for DF group  1
 Library entry CL     P aug-cc-pVTZ-MP2F     selected for DF group  1
 Library entry CL     D aug-cc-pVTZ-MP2F     selected for DF group  1
 Library entry CL     F aug-cc-pVTZ-MP2F     selected for DF group  1
 Library entry CL     G aug-cc-pVTZ-MP2F     selected for DF group  1
 Basis set:    DF
 Basis size:   294
 Sphericals:   T
 =======================================
 Centre l       exponent    contractions
 =======================================

    1   s     396.329199      1.000000
    1   s     131.640208      1.000000
    1   s      46.777304      1.000000
    1   s      17.032290      1.000000
    1   s       8.925588      1.000000
    1   s       4.049632      1.000000
    1   s       1.723282      1.000000
    1   s       1.058000      1.000000
    1   s       0.541567      1.000000
    1   s       0.227318      1.000000
    1   s       0.092696      1.000000

    1   p     130.863797      1.000000
    1   p      15.683455      1.000000
    1   p       5.333079      1.000000
    1   p       3.621089      1.000000
    1   p       1.363314      1.000000
    1   p       0.843351      1.000000
    1   p       0.566618      1.000000
    1   p       0.294546      1.000000
    1   p       0.151333      1.000000

    1   d      44.369008      1.000000
    1   d      13.056776      1.000000
    1   d       6.121270      1.000000
    1   d       3.048551      1.000000
    1   d       1.457029      1.000000
    1   d       0.711214      1.000000
    1   d       0.304138      1.000000
    1   d       0.141029      1.000000

    1   f      13.334636      1.000000
    1   f       5.106078      1.000000
    1   f       2.006849      1.000000
    1   f       1.281523      1.000000
    1   f       0.596584      1.000000
    1   f       0.250756      1.000000

    1   g       3.695301      1.000000
    1   g       1.094691      1.000000
    1   g       0.483349      1.000000

    2   s     396.329199      1.000000
    2   s     131.640208      1.000000
    2   s      46.777304      1.000000
    2   s      17.032290      1.000000
    2   s       8.925588      1.000000
    2   s       4.049632      1.000000
    2   s       1.723282      1.000000
    2   s       1.058000      1.000000
    2   s       0.541567      1.000000
    2   s       0.227318      1.000000
    2   s       0.092696      1.000000

    2   p     130.863797      1.000000
    2   p      15.683455      1.000000
    2   p       5.333079      1.000000
    2   p       3.621089      1.000000
    2   p       1.363314      1.000000
    2   p       0.843351      1.000000
    2   p       0.566618      1.000000
    2   p       0.294546      1.000000
    2   p       0.151333      1.000000

    2   d      44.369008      1.000000
    2   d      13.056776      1.000000
    2   d       6.121270      1.000000
    2   d       3.048551      1.000000
    2   d       1.457029      1.000000
    2   d       0.711214      1.000000
    2   d       0.304138      1.000000
    2   d       0.141029      1.000000

    2   f      13.334636      1.000000
    2   f       5.106078      1.000000
    2   f       2.006849      1.000000
    2   f       1.281523      1.000000
    2   f       0.596584      1.000000
    2   f       0.250756      1.000000

    2   g       3.695301      1.000000
    2   g       1.094691      1.000000
    2   g       0.483349      1.000000
 =======================================

 Library entry CL     S aug-cc-pVTZ-JKFI     selected for JK group  1
 Library entry CL     P aug-cc-pVTZ-JKFI     selected for JK group  1
 Library entry CL     D aug-cc-pVTZ-JKFI     selected for JK group  1
 Library entry CL     F aug-cc-pVTZ-JKFI     selected for JK group  1
 Library entry CL     G aug-cc-pVTZ-JKFI     selected for JK group  1
 Basis set:    JK
 Basis size:   292
 Sphericals:   T
 =======================================
 Centre l       exponent    contractions
 =======================================

    1   s    7082.797058      1.000000
    1   s    2109.309508      1.000000
    1   s     768.412819      1.000000
    1   s     284.792554      1.000000
    1   s     116.553317      1.000000
    1   s      46.394821      1.000000
    1   s      21.956303      1.000000
    1   s       9.993027      1.000000
    1   s       4.719946      1.000000
    1   s       2.657340      1.000000
    1   s       1.081348      1.000000
    1   s       0.531547      1.000000
    1   s       0.233670      1.000000
    1   s       0.102723      1.000000

    1   p     973.735285      1.000000
    1   p     278.991093      1.000000
    1   p     105.886445      1.000000
    1   p      45.231847      1.000000
    1   p      20.289166      1.000000
    1   p       9.582938      1.000000
    1   p       4.464168      1.000000
    1   p       2.362561      1.000000
    1   p       1.149196      1.000000
    1   p       0.603102      1.000000
    1   p       0.305909      1.000000
    1   p       0.155165      1.000000

    1   d     204.380301      1.000000
    1   d      63.693893      1.000000
    1   d      25.726669      1.000000
    1   d      11.602467      1.000000
    1   d       5.457454      1.000000
    1   d       2.883840      1.000000
    1   d       1.339402      1.000000
    1   d       0.616492      1.000000
    1   d       0.274701      1.000000
    1   d       0.122404      1.000000

    1   f       4.204066      1.000000
    1   f       1.201162      1.000000
    1   f       0.499162      1.000000
    1   f       0.207435      1.000000

    1   g       0.861162      1.000000
    1   g       0.344465      1.000000

    2   s    7082.797058      1.000000
    2   s    2109.309508      1.000000
    2   s     768.412819      1.000000
    2   s     284.792554      1.000000
    2   s     116.553317      1.000000
    2   s      46.394821      1.000000
    2   s      21.956303      1.000000
    2   s       9.993027      1.000000
    2   s       4.719946      1.000000
    2   s       2.657340      1.000000
    2   s       1.081348      1.000000
    2   s       0.531547      1.000000
    2   s       0.233670      1.000000
    2   s       0.102723      1.000000

    2   p     973.735285      1.000000
    2   p     278.991093      1.000000
    2   p     105.886445      1.000000
    2   p      45.231847      1.000000
    2   p      20.289166      1.000000
    2   p       9.582938      1.000000
    2   p       4.464168      1.000000
    2   p       2.362561      1.000000
    2   p       1.149196      1.000000
    2   p       0.603102      1.000000
    2   p       0.305909      1.000000
    2   p       0.155165      1.000000

    2   d     204.380301      1.000000
    2   d      63.693893      1.000000
    2   d      25.726669      1.000000
    2   d      11.602467      1.000000
    2   d       5.457454      1.000000
    2   d       2.883840      1.000000
    2   d       1.339402      1.000000
    2   d       0.616492      1.000000
    2   d       0.274701      1.000000
    2   d       0.122404      1.000000

    2   f       4.204066      1.000000
    2   f       1.201162      1.000000
    2   f       0.499162      1.000000
    2   f       0.207435      1.000000

    2   g       0.861162      1.000000
    2   g       0.344465      1.000000
 =======================================

 Library entry CL     S cc-pVTZ-F12_OPT      selected for RI group  1
 Library entry CL     P cc-pVTZ-F12_OPT      selected for RI group  1
 Library entry CL     D cc-pVTZ-F12_OPT      selected for RI group  1
 Library entry CL     F cc-pVTZ-F12_OPT      selected for RI group  1
 Library entry CL     G cc-pVTZ-F12_OPT      selected for RI group  1
 Basis set:    RI
 Basis size:   150
 Sphericals:   T
 =======================================
 Centre l       exponent    contractions
 =======================================

    1   s       2.024335      1.000000
    1   s       0.524449      1.000000
    1   s       0.235091      1.000000
    1   s       0.091108      1.000000

    1   p       8.455360      1.000000
    1   p       1.814977      1.000000
    1   p       0.446755      1.000000
    1   p       0.183344      1.000000

    1   d      45.075992      1.000000
    1   d       5.297218      1.000000
    1   d       1.149119      1.000000
    1   d       0.390612      1.000000

    1   f       5.905210      1.000000
    1   f       1.293926      1.000000
    1   f       0.492185      1.000000

    1   g       1.275934      1.000000
    1   g       0.600452      1.000000

    2   s       2.024335      1.000000
    2   s       0.524449      1.000000
    2   s       0.235091      1.000000
    2   s       0.091108      1.000000

    2   p       8.455360      1.000000
    2   p       1.814977      1.000000
    2   p       0.446755      1.000000
    2   p       0.183344      1.000000

    2   d      45.075992      1.000000
    2   d       5.297218      1.000000
    2   d       1.149119      1.000000
    2   d       0.390612      1.000000

    2   f       5.905210      1.000000
    2   f       1.293926      1.000000
    2   f       0.492185      1.000000

    2   g       1.275934      1.000000
    2   g       0.600452      1.000000
 =======================================


 **********************************************************************************************************************************

 EXTRA SYMMETRY OF AOS IN SYMMETRY 1:   1 1 1 1 1 1 1 2 3 1   2 3 1 2 3 1 2 3 1 2   3 1 2 3 1 2 3 1 1 4   2 5 3 1 4 2 5 3 1 4
                                        2 5 3 1 4 2 5 3 2 3   1 6 4 7 5 2 3 1 6 4   7 5 1 1 1 1 1 1 1 2   3 1 2 3 1 2 3 1 2 3
                                        1 2 3 1 2 3 1 2 3 1   1 4 2 5 3 1 4 2 5 3   1 4 2 5 3 1 4 2 5 3   2 3 1 6 4 7 5 2 3 1
                                        6 4 7 5

 Eigenvalues of metric

         1 0.196E-03 0.222E-03 0.282E-03 0.336E-03 0.367E-03 0.367E-03 0.382E-03 0.382E-03


 OPERATOR DM      FOR CENTER  0  COORDINATES:    0.000000    0.000000    0.000000


 **********************************************************************************************************************************
 DATASETS  * FILE   NREC   LENGTH (MB)   RECORD NAMES
              1      18       29.15       500      610      700      900      950      970     1000      129      960     1100   
                                          VAR    BASINP    GEOM    SYMINP    ZMAT    AOBASIS   BASIS     P2S    ABASIS      S 
                                         1400     1410     1200     1210     1080     1600     1650     1700   
                                           T        V       H0       H01     AOSYM     SMH    MOLCAS    OPER   

 PROGRAMS   *        TOTAL       INT
 CPU TIMES  *         0.38      0.22
 REAL TIME  *         1.06 SEC
 DISK USED  *        29.46 MB (local),      471.33 MB (total)
 GA USED    *         0.00 MB       (max)       0.00 MB       (current)
 **********************************************************************************************************************************


 Program * Restricted Hartree-Fock

 Coulomb and exchange fitting
 Thresholds for fitting:       THRAO_COUL= 1.0D-15    THRAO_EXCH= 1.0D-13    THRMO= 1.0D-12    THRPROD= 1.0D-12    THRASM= 1.0D-12
                               THR2HLF=    1.0D-12

 Basis set JK loaded. Number of basis functions: 292

 Orbital guess generated from atomic densities. Full valence occupancy:   18
 Using density fitting in orbital guess


 Initial occupancy:  17

 NELEC=   34   SYM=1   MS2= 0   THRE=1.0D-11   THRD=1.0D-06   THRG=1.0D-06  HFMA2=F  DIIS_START=2   DIIS_MAX=10   DIIS_INCORE=F

 Level shifts:    0.00 (CLOSED)    0.00 (OPEN)    0.30 (GAP_MIN)

 ITER           ETOT              DE          GRAD        DDIFF     DIIS  NEXP   TIME(IT)  TIME(TOT)  DIAG
   1     -918.98942230    -918.98942230     0.00D+00     0.92D-01     0     0       0.01      0.03    start
   2     -919.00518784      -0.01576554     0.34D-02     0.55D-02     1     0       0.02      0.05    diag
   3     -919.00827056      -0.00308272     0.17D-02     0.12D-02     2     0       0.04      0.09    diag
   4     -919.00851356      -0.00024300     0.24D-03     0.32D-03     3     0       0.01      0.10    diag
   5     -919.00853189      -0.00001833     0.63D-04     0.79D-04     4     0       0.01      0.11    diag
   6     -919.00853229      -0.00000040     0.10D-04     0.18D-04     5     0       0.02      0.13    diag
   7     -919.00853229      -0.00000000     0.15D-05     0.21D-05     6     0       0.02      0.15    diag
   8     -919.00853229      -0.00000000     0.30D-06     0.70D-06     7     0       0.01      0.16    fixocc
   9     -919.00853229      -0.00000000     0.50D-07     0.79D-07     8     0       0.02      0.18    diag
  10     -919.00853229      -0.00000000     0.60D-08     0.80D-08     0     0       0.02      0.20    diag/orth

 Final occupancy:  17

 !RHF STATE 1.1 Energy               -919.008532292929
  RHF One-electron energy           -1423.067340455223
  RHF Two-electron energy             427.127265352813
  RHF Kinetic energy                  918.976204543104
  RHF Nuclear energy                   76.931542809481
  RHF Virial quotient                  -1.000035178005

 !RHF STATE 1.1 Dipole moment          -0.00000000    -0.00000000    -0.00000000
 Dipole moment /Debye                  -0.00000000    -0.00000000    -0.00000000

 ELECTRON ORBITALS
 =================

  Orbital  Occupation    Energy    Cen Mu Typ  Coefficients
    1.1     2.00000  -104.89792     1  1  s    0.70709    2  1  s    0.70709
    2.1     2.00000  -104.89792     1  1  s    0.70708    2  1  s   -0.70708
    3.1     2.00000   -10.61992     1  2  s    0.70748    2  2  s    0.70748
    4.1     2.00000   -10.61975     1  2  s    0.70785    2  2  s   -0.70785
    5.1     2.00000    -8.08700     1  1  pz   0.71190    2  1  pz  -0.71190
    6.1     2.00000    -8.08673     1  1  pz   0.71248    2  1  pz   0.71248
    7.1     2.00000    -8.08431     1  1  py   0.69082    2  1  py   0.69082
    8.1     2.00000    -8.08431     1  1  px   0.69082    2  1  px   0.69082
    9.1     2.00000    -8.08430     1  1  py   0.66838    2  1  py  -0.66838
   10.1     2.00000    -8.08430     1  1  px   0.66838    2  1  px  -0.66838
   11.1     2.00000    -1.21904     1  3  s    0.64151    2  3  s    0.64151
   12.1     2.00000    -1.01482     1  3  s    0.72008    2  3  s   -0.72008
   13.1     2.00000    -0.59838     1  2  pz   0.56751    2  2  pz  -0.56751
   14.1     2.00000    -0.57008     1  2  px   0.44852    1  2  py   0.51072    2  2  px   0.44852    2  2  py   0.51072
   15.1     2.00000    -0.57008     1  2  px   0.51072    1  2  py  -0.44852    2  2  px   0.51072    2  2  py  -0.44852
   16.1     2.00000    -0.44377     1  2  py   0.76520    2  2  py  -0.76520
   17.1     2.00000    -0.44377     1  2  px   0.76520    2  2  px  -0.76520


 HOMO     17.1    -0.443768 =     -12.0755eV
 LUMO     18.1     0.024476 =       0.6660eV
 LUMO-HOMO         0.468244 =      12.7416eV

 Orbitals saved in record  2100.2


 **********************************************************************************************************************************
 DATASETS  * FILE   NREC   LENGTH (MB)   RECORD NAMES
              1      18       29.15       500      610      700      900      950      970     1000      129      960     1100   
                                          VAR    BASINP    GEOM    SYMINP    ZMAT    AOBASIS   BASIS     P2S    ABASIS      S 
                                         1400     1410     1200     1210     1080     1600     1650     1700   
                                           T        V       H0       H01     AOSYM     SMH    MOLCAS    OPER   

              2       4        0.62       700     1000      520     2100   
                                         GEOM     BASIS   MCVARS     RHF  

 PROGRAMS   *        TOTAL     DF-HF       INT
 CPU TIMES  *         0.65      0.27      0.22
 REAL TIME  *         1.93 SEC
 DISK USED  *        30.83 MB (local),      493.29 MB (total)
 SF USED    *         4.97 MB
 GA USED    *         0.00 MB       (max)       0.00 MB       (current)
 **********************************************************************************************************************************

 Library entry CL     S aug-cc-pVTZ-MP2F     selected for DF group  1
 Library entry CL     P aug-cc-pVTZ-MP2F     selected for DF group  1
 Library entry CL     D aug-cc-pVTZ-MP2F     selected for DF group  1
 Library entry CL     F aug-cc-pVTZ-MP2F     selected for DF group  1
 Library entry CL     G aug-cc-pVTZ-MP2F     selected for DF group  1
 Basis set:    DF
 Basis size:   294
 Sphericals:   T
 =======================================
 Centre l       exponent    contractions
 =======================================

    1   s     396.329199      1.000000
    1   s     131.640208      1.000000
    1   s      46.777304      1.000000
    1   s      17.032290      1.000000
    1   s       8.925588      1.000000
    1   s       4.049632      1.000000
    1   s       1.723282      1.000000
    1   s       1.058000      1.000000
    1   s       0.541567      1.000000
    1   s       0.227318      1.000000
    1   s       0.092696      1.000000

    1   p     130.863797      1.000000
    1   p      15.683455      1.000000
    1   p       5.333079      1.000000
    1   p       3.621089      1.000000
    1   p       1.363314      1.000000
    1   p       0.843351      1.000000
    1   p       0.566618      1.000000
    1   p       0.294546      1.000000
    1   p       0.151333      1.000000

    1   d      44.369008      1.000000
    1   d      13.056776      1.000000
    1   d       6.121270      1.000000
    1   d       3.048551      1.000000
    1   d       1.457029      1.000000
    1   d       0.711214      1.000000
    1   d       0.304138      1.000000
    1   d       0.141029      1.000000

    1   f      13.334636      1.000000
    1   f       5.106078      1.000000
    1   f       2.006849      1.000000
    1   f       1.281523      1.000000
    1   f       0.596584      1.000000
    1   f       0.250756      1.000000

    1   g       3.695301      1.000000
    1   g       1.094691      1.000000
    1   g       0.483349      1.000000

    2   s     396.329199      1.000000
    2   s     131.640208      1.000000
    2   s      46.777304      1.000000
    2   s      17.032290      1.000000
    2   s       8.925588      1.000000
    2   s       4.049632      1.000000
    2   s       1.723282      1.000000
    2   s       1.058000      1.000000
    2   s       0.541567      1.000000
    2   s       0.227318      1.000000
    2   s       0.092696      1.000000

    2   p     130.863797      1.000000
    2   p      15.683455      1.000000
    2   p       5.333079      1.000000
    2   p       3.621089      1.000000
    2   p       1.363314      1.000000
    2   p       0.843351      1.000000
    2   p       0.566618      1.000000
    2   p       0.294546      1.000000
    2   p       0.151333      1.000000

    2   d      44.369008      1.000000
    2   d      13.056776      1.000000
    2   d       6.121270      1.000000
    2   d       3.048551      1.000000
    2   d       1.457029      1.000000
    2   d       0.711214      1.000000
    2   d       0.304138      1.000000
    2   d       0.141029      1.000000

    2   f      13.334636      1.000000
    2   f       5.106078      1.000000
    2   f       2.006849      1.000000
    2   f       1.281523      1.000000
    2   f       0.596584      1.000000
    2   f       0.250756      1.000000

    2   g       3.695301      1.000000
    2   g       1.094691      1.000000
    2   g       0.483349      1.000000
 =======================================

 Library entry CL     S aug-cc-pVTZ-JKFI     selected for JK group  1
 Library entry CL     P aug-cc-pVTZ-JKFI     selected for JK group  1
 Library entry CL     D aug-cc-pVTZ-JKFI     selected for JK group  1
 Library entry CL     F aug-cc-pVTZ-JKFI     selected for JK group  1
 Library entry CL     G aug-cc-pVTZ-JKFI     selected for JK group  1
 Basis set:    JK
 Basis size:   292
 Sphericals:   T
 =======================================
 Centre l       exponent    contractions
 =======================================

    1   s    7082.797058      1.000000
    1   s    2109.309508      1.000000
    1   s     768.412819      1.000000
    1   s     284.792554      1.000000
    1   s     116.553317      1.000000
    1   s      46.394821      1.000000
    1   s      21.956303      1.000000
    1   s       9.993027      1.000000
    1   s       4.719946      1.000000
    1   s       2.657340      1.000000
    1   s       1.081348      1.000000
    1   s       0.531547      1.000000
    1   s       0.233670      1.000000
    1   s       0.102723      1.000000

    1   p     973.735285      1.000000
    1   p     278.991093      1.000000
    1   p     105.886445      1.000000
    1   p      45.231847      1.000000
    1   p      20.289166      1.000000
    1   p       9.582938      1.000000
    1   p       4.464168      1.000000
    1   p       2.362561      1.000000
    1   p       1.149196      1.000000
    1   p       0.603102      1.000000
    1   p       0.305909      1.000000
    1   p       0.155165      1.000000

    1   d     204.380301      1.000000
    1   d      63.693893      1.000000
    1   d      25.726669      1.000000
    1   d      11.602467      1.000000
    1   d       5.457454      1.000000
    1   d       2.883840      1.000000
    1   d       1.339402      1.000000
    1   d       0.616492      1.000000
    1   d       0.274701      1.000000
    1   d       0.122404      1.000000

    1   f       4.204066      1.000000
    1   f       1.201162      1.000000
    1   f       0.499162      1.000000
    1   f       0.207435      1.000000

    1   g       0.861162      1.000000
    1   g       0.344465      1.000000

    2   s    7082.797058      1.000000
    2   s    2109.309508      1.000000
    2   s     768.412819      1.000000
    2   s     284.792554      1.000000
    2   s     116.553317      1.000000
    2   s      46.394821      1.000000
    2   s      21.956303      1.000000
    2   s       9.993027      1.000000
    2   s       4.719946      1.000000
    2   s       2.657340      1.000000
    2   s       1.081348      1.000000
    2   s       0.531547      1.000000
    2   s       0.233670      1.000000
    2   s       0.102723      1.000000

    2   p     973.735285      1.000000
    2   p     278.991093      1.000000
    2   p     105.886445      1.000000
    2   p      45.231847      1.000000
    2   p      20.289166      1.000000
    2   p       9.582938      1.000000
    2   p       4.464168      1.000000
    2   p       2.362561      1.000000
    2   p       1.149196      1.000000
    2   p       0.603102      1.000000
    2   p       0.305909      1.000000
    2   p       0.155165      1.000000

    2   d     204.380301      1.000000
    2   d      63.693893      1.000000
    2   d      25.726669      1.000000
    2   d      11.602467      1.000000
    2   d       5.457454      1.000000
    2   d       2.883840      1.000000
    2   d       1.339402      1.000000
    2   d       0.616492      1.000000
    2   d       0.274701      1.000000
    2   d       0.122404      1.000000

    2   f       4.204066      1.000000
    2   f       1.201162      1.000000
    2   f       0.499162      1.000000
    2   f       0.207435      1.000000

    2   g       0.861162      1.000000
    2   g       0.344465      1.000000
 =======================================

 Library entry CL     S cc-pVTZ-F12_OPT      selected for RI group  1
 Library entry CL     P cc-pVTZ-F12_OPT      selected for RI group  1
 Library entry CL     D cc-pVTZ-F12_OPT      selected for RI group  1
 Library entry CL     F cc-pVTZ-F12_OPT      selected for RI group  1
 Library entry CL     G cc-pVTZ-F12_OPT      selected for RI group  1
 Basis set:    RI
 Basis size:   150
 Sphericals:   T
 =======================================
 Centre l       exponent    contractions
 =======================================

    1   s       2.024335      1.000000
    1   s       0.524449      1.000000
    1   s       0.235091      1.000000
    1   s       0.091108      1.000000

    1   p       8.455360      1.000000
    1   p       1.814977      1.000000
    1   p       0.446755      1.000000
    1   p       0.183344      1.000000

    1   d      45.075992      1.000000
    1   d       5.297218      1.000000
    1   d       1.149119      1.000000
    1   d       0.390612      1.000000

    1   f       5.905210      1.000000
    1   f       1.293926      1.000000
    1   f       0.492185      1.000000

    1   g       1.275934      1.000000
    1   g       0.600452      1.000000

    2   s       2.024335      1.000000
    2   s       0.524449      1.000000
    2   s       0.235091      1.000000
    2   s       0.091108      1.000000

    2   p       8.455360      1.000000
    2   p       1.814977      1.000000
    2   p       0.446755      1.000000
    2   p       0.183344      1.000000

    2   d      45.075992      1.000000
    2   d       5.297218      1.000000
    2   d       1.149119      1.000000
    2   d       0.390612      1.000000

    2   f       5.905210      1.000000
    2   f       1.293926      1.000000
    2   f       0.492185      1.000000

    2   g       1.275934      1.000000
    2   g       0.600452      1.000000
 =======================================


 PROGRAM * MP2 (Closed-shell)     Authors: C. Hampel, H.-J. Werner, 1991, M. Deegan, P.J. Knowles, 1992

                                   MP2-F12 implementation by H.-J. Werner, 2007

                   Density fitting integral evaluation by F.R. Manby, 2003,2007, G. Knizia, 2010



 Convergence thresholds:  THRVAR = 1.00D-08  THRDEN = 1.00D-09

 Number of core orbitals:          10 (  10 )
 Number of closed-shell orbitals:   7 (   7 )
 Number of external orbitals:     107 ( 107 )

 Molecular orbitals read from record     2100.2  Type=RHF/CANONICAL  

 MP2-F12 correlation treatment (H.-J. Werner, 2006)
 ==================================================

 Some Fock operators are calculated for F12-singles only.

 AO(A)-basis ORBITAL           loaded. Number of functions:     124
 RI(R)-basis RI                loaded. Number of functions:     150
 Basis set JK loaded. Number of basis functions: 292 
 DF-basis JK                   loaded. Number of functions:     292

 Screening thresholds:   THRAO=  1.00D-10  THRMO=  1.00D-09  THRPROD=  1.00D-09
                         THRSW=  1.00D-05  THROV=  1.00D-12  THRAOF12= 1.00D-08

 CPU time for Fock operators                      0.06 sec

 Construction of ABS:
 Smallest eigenvalue of S          5.25E-03  (threshold= 1.00E-09)
 Ratio eigmin/eigmax               1.30E-03  (threshold= 1.00E-09)
 Smallest eigenvalue of S kept     5.25E-03  (threshold= 5.25E-03, 0 functions deleted, 150 kept)

 Construction of CABS:
 Smallest eigenvalue of S          1.67E-06  (threshold= 1.00E-09)
 Ratio eigmin/eigmax               1.67E-06  (threshold= 1.00E-09)
 Smallest eigenvalue of S kept     1.67E-06  (threshold= 1.67E-06, 0 functions deleted, 150 kept)

 CPU time for CABS singles                        0.01 sec

 CABS-singles contribution of  -0.00082136 patched into reference energy.
 New reference energy        -919.00935365

 Leaving lmp2-f12 by request (CABS_SINGLES < 0) after calculation of singles.


  Reference energy                   -919.008532292929
  F12 singles correction               -0.000821356394

 F12 singles corrections added to reference energy

  New reference energy               -919.009353649323

  F12 singlet correction                0.000000000000
  F12 triplet correction                0.000000000000
  F12 total correction                  0.000000000000
  MP2-F12 singlet pair energy           0.000000000000
  MP2-F12 triplet pair energy           0.000000000000
  MP2-F12 correlation energy            0.000000000000

 !MP2-F12 total energy               -919.009353649323


 **********************************************************************************************************************************
 DATASETS  * FILE   NREC   LENGTH (MB)   RECORD NAMES
              1      18       29.15       500      610      700      900      950      970     1000      129      960     1100   
                                          VAR    BASINP    GEOM    SYMINP    ZMAT    AOBASIS   BASIS     P2S    ABASIS      S 
                                         1400     1410     1200     1210     1080     1600     1650     1700   
                                           T        V       H0       H01     AOSYM     SMH    MOLCAS    OPER   

              2       5        0.79       700     1000      520     2100     7360   
                                         GEOM     BASIS   MCVARS     RHF    F12ABS    

 PROGRAMS   *        TOTAL   DF-CABS     DF-HF       INT
 CPU TIMES  *         0.79      0.13      0.27      0.22
 REAL TIME  *         2.11 SEC
 DISK USED  *        30.83 MB (local),      493.29 MB (total)
 SF USED    *        49.02 MB
 GA USED    *         3.05 MB       (max)       0.00 MB       (current)
 **********************************************************************************************************************************

 DF-CABS/cc-pVTZ-F12 energy=   -919.009353649323

         DF-CABS           DF-HF
   -919.00935365   -919.00853229
 **********************************************************************************************************************************
 Molpro calculation terminated
