
 Working directory              : /scratch/emmanous/3821779.pbs01/molpro.GeJv67As35/
 Global scratch directory       : /scratch/emmanous/3821779.pbs01/molpro.GeJv67As35/
 Wavefunction directory         : /home/emmanous/wfu/
 Main file repository           : /scratch/emmanous/3821779.pbs01/molpro.GeJv67As35/

 id        : wis

 Nodes     nprocs
 cff055      16
 GA implementation: MPI file
 GA implementation (serial work in mppx): MPI file

 Using DEFAULT tuning parameter for ncache   :   16384
 Using DEFAULT tuning parameter for mflopdgm :   10000
 Using DEFAULT tuning parameter for mflopdgv :    4000
 Using DEFAULT tuning parameter for mflopmxm :    5000
 Using DEFAULT tuning parameter for mflopmxv :    4000
 Using DEFAULT tuning parameter for mindgm   :       1
 Using DEFAULT tuning parameter for mindgc   :       4
 Using DEFAULT tuning parameter for mindgf   :    5000
 Using DEFAULT tuning parameter for mindgl   :       4
 Using DEFAULT tuning parameter for mindgr   :       1
 Using DEFAULT tuning parameter for mindgv   :      20
 Using DEFAULT tuning parameter for mincuda  :     500
 Using DEFAULT tuning parameter for mxmblk   :      64
 Using DEFAULT tuning parameter for mxmbln   :      64
 Using DEFAULT tuning parameter for nroll    :       2
 Using custom tuning parameter for ngpus     :       0
 Using customized tuning parameters: mindgm=1; mindgv=20; mindgc=4; mindgr=1; noblas=0; minvec=7

 Fortran compiler: integer size=8, double size=8, logical size=8
 default implementation of scratch files=sf  


 Variables initialized (1025), CPU time= 0.01 sec
 gprint,basis
 gthresh,energy=1d-9
 ANGSTROM
 geomtyp=xyz
 charge=0
 multiplicity=1
 nosym
 geom={
 Cl ,0.0000 ,0.0000 ,0.0000
 Cl ,0.0000 ,0.0000 ,1.9879
 }
 
 basis={
 default,cc-pVDZ-F12
 set,df
 default,cc-pVDZ-F12/MP2Fit
 set,jk
 default,cc-pVDZ-F12/JKFIT
 set,ri
 default,def2-QZVPP/JKFIT
 }
 {df-hf,df_basis=jk
 wf,,,$multiplicity-1
 print,orbitals
 maxit,300}
 {df-cabs,gem_beta=0.9,df_basis=df,df_basis_exch=jk,ri_basis=ri,thrcabs=1d-9,thrcabs_rel=1d-9;explicit,ignore_bad_singl=1}
 Commands initialized (840), CPU time= 0.01 sec, 684 directives.
 Default parameters read. Elapsed time= 0.08 sec

 Using DEFAULT tuning parameter for mpplat   :       3
 Using DEFAULT tuning parameter for mppspeed :    1600
 Checking input...
 Passed
1


                                         ***  PROGRAM SYSTEM MOLPRO  ***
                                       Copyright, TTI GmbH Stuttgart, 2015
                                    Version 2022.3 linked Wed Nov 30 13:40:34 2022


 **********************************************************************************************************************************
 LABEL *                                                                                 
  64 bit mpp version                                                                     DATE: 13-Jul-23          TIME: 11:07:44  
 **********************************************************************************************************************************

 SHA1:             e31ec9a5ea85254ab76f59d122cbdd51c71cf98b
 **********************************************************************************************************************************

 Memory per process:      1000 MW
 Total memory per node:  16000 MW

 GA preallocation disabled
 GA check disabled

 Variable memory set to 1000.0 MW



 THRESHOLDS:

 ZERO    =  1.00D-12  ONEINT  =  1.00D-12  TWOINT  =  1.00D-11  PREFAC  =  1.00D-14  XXXXXX  =  1.00D-09  EORDER  =  1.00D-04
 ENERGY  =  1.00D-09  ETEST   =  0.00D+00  EDENS   =  0.00D+00  THRDEDEF=  1.00D-06  GRADIENT=  1.00D-05  STEP    =  1.00D-03
 ORBITAL =  1.00D-05  CIVEC   =  1.00D-05  COEFF   =  1.00D-04  PRINTCI =  5.00D-02  PUNCHCI =  9.90D+01  OPTGRAD =  3.00D-04
 OPTENERG=  1.00D-06  OPTSTEP =  3.00D-04  THRGRAD =  1.00D-10  COMPRESS=  1.00D-11  VARMIN  =  1.00D-07  VARMAX  =  1.00D-03
 THRDOUB =  0.00D+00  THRDIV  =  1.00D-05  THRRED  =  1.00D-07  THRPSP  =  1.00D+00  THRDC   =  1.00D-10  THRCS   =  1.00D-10
 THRNRM  =  1.00D-08  THREQ   =  0.00D+00  THRDE   =  1.00D+00  THRREF  =  1.00D-05  SPARFAC =  1.00D+00  THRDLP  =  1.00D-07
 THRDIA  =  1.00D-10  THRDLS  =  1.00D-07  THRGPS  =  0.00D+00  THRKEX  =  0.00D+00  THRDIS  =  2.00D-01  THRVAR  =  1.00D-10
 THRLOC  =  1.00D-06  THRGAP  =  1.00D-06  THRLOCT = -1.00D+00  THRGAPT = -1.00D+00  THRORB  =  1.00D-06  THRMLTP =  0.00D+00
 THRCPQCI=  1.00D-10  KEXTA   =  0.00D+00  THRCOARS=  0.00D+00  SYMTOL  =  1.00D-06  GRADTOL =  1.00D-06  THROVL  =  1.00D-08
 THRORTH =  1.00D-08  THRDLOVL= -1.00D+00  GRID    =  1.00D-06  GRIDMAX =  1.00D-03  DTMAX   =  0.00D+00  THROCCDE=  1.00D-01
 THROCCDE=  1.00D-01  THRPRINT=  2.50D-01

 SETTING GEOMTYP        =    XYZ
 SETTING CHARGE         =      0.0000000D+00                                  
 SETTING MULTIPLICITY   =         1.00000000                                  
 ZSYMEL=NOSYM
 ZUNIT=ANG

 SETTING BASIS          =    CC-PVDZ-F12


 Recomputing integrals since basis changed


 Using spherical harmonics

 Library entry CL     S cc-pVDZ-F12          selected for orbital group  1
 Library entry CL     P cc-pVDZ-F12          selected for orbital group  1
 Library entry CL     D cc-pVDZ-F12          selected for orbital group  1


 PROGRAM * SEWARD (Integral evaluation for generally contracted gaussian basis sets)     Author: Roland Lindh, 1990

 Geometry written to block  1 of record 700


 Point group  C1  



 ATOMIC COORDINATES

 NR  ATOM    CHARGE       X              Y              Z

   1  CL     17.00    0.000000000    0.000000000    0.000000000
   2  CL     17.00    0.000000000    0.000000000    3.756586563

 Bond lengths in Bohr (Angstrom)

 1-2  3.756586563
     ( 1.987900000)


 BASIS DATA

   Nr Sym  Nuc  Type         Exponents   Contraction coefficients

    1.1 A     1  1s      456100.000000     0.000049   -0.000014    0.000004    0.000000    0.000000
    2.1 A                 68330.000000     0.000383   -0.000107    0.000032    0.000000    0.000000
    3.1 A                 15550.000000     0.002009   -0.000565    0.000171    0.000000    0.000000
    4.1 A                  4405.000000     0.008386   -0.002361    0.000714    0.000000    0.000000
    5.1 A                  1439.000000     0.029470   -0.008459    0.002567    0.000000    0.000000
                            520.400000     0.087832   -0.025964    0.007886    0.000000    0.000000
                            203.100000     0.211473   -0.068636    0.021087    0.000000    0.000000
                             83.960000     0.365364   -0.141874    0.044226    0.000000    0.000000
                             36.200000     0.340884   -0.199319    0.065167    0.000000    0.000000
                             15.830000     0.102133   -0.019566    0.006030    0.000000    0.000000
                              6.334000     0.003117    0.499741   -0.206495    0.000000    0.000000
                              2.694000     0.001058    0.563736   -0.405871    0.000000    0.000000
                              0.976800    -0.000378    0.079033    0.075956    1.000000    0.000000
                              0.431300     0.000156   -0.008351    0.725661    0.000000    0.000000
                              0.162500    -0.000051    0.002325    0.394423    0.000000    1.000000
    6.1 A     1  1s           0.059100     1.000000
    7.1 A     1  2px        663.300000     0.002404
                            156.800000     0.019215
                             49.980000     0.088510
                             18.420000     0.256020
                              7.240000     0.436927
                              2.922000     0.350334
                              1.022000     0.058549
                              0.381800    -0.004584
                              0.130100     0.002270
    8.1 A     1  2py        663.300000     0.002404
                            156.800000     0.019215
                             49.980000     0.088510
                             18.420000     0.256020
                              7.240000     0.436927
                              2.922000     0.350334
                              1.022000     0.058549
                              0.381800    -0.004584
                              0.130100     0.002270
    9.1 A     1  2pz        663.300000     0.002404
                            156.800000     0.019215
                             49.980000     0.088510
                             18.420000     0.256020
                              7.240000     0.436927
                              2.922000     0.350334
                              1.022000     0.058549
                              0.381800    -0.004584
                              0.130100     0.002270
   10.1 A     1  2px        663.300000    -0.000652
                            156.800000    -0.005194
                             49.980000    -0.024694
                             18.420000    -0.072817
                              7.240000    -0.134030
                              2.922000    -0.094774
                              1.022000     0.262289
                              0.381800     0.564667
                              0.130100     0.341250
   11.1 A     1  2py        663.300000    -0.000652
                            156.800000    -0.005194
                             49.980000    -0.024694
                             18.420000    -0.072817
                              7.240000    -0.134030
                              2.922000    -0.094774
                              1.022000     0.262289
                              0.381800     0.564667
                              0.130100     0.341250
   12.1 A     1  2pz        663.300000    -0.000652
                            156.800000    -0.005194
                             49.980000    -0.024694
                             18.420000    -0.072817
                              7.240000    -0.134030
                              2.922000    -0.094774
                              1.022000     0.262289
                              0.381800     0.564667
                              0.130100     0.341250
   13.1 A     1  2px        663.300000     0.000000
                            156.800000     0.000000
                             49.980000     0.000000
                             18.420000     0.000000
                              7.240000     0.000000
                              2.922000     0.000000
                              1.022000     0.000000
                              0.381800     0.000000
                              0.130100     1.000000
   14.1 A     1  2py        663.300000     0.000000
                            156.800000     0.000000
                             49.980000     0.000000
                             18.420000     0.000000
                              7.240000     0.000000
                              2.922000     0.000000
                              1.022000     0.000000
                              0.381800     0.000000
                              0.130100     1.000000
   15.1 A     1  2pz        663.300000     0.000000
                            156.800000     0.000000
                             49.980000     0.000000
                             18.420000     0.000000
                              7.240000     0.000000
                              2.922000     0.000000
                              1.022000     0.000000
                              0.381800     0.000000
                              0.130100     1.000000
   16.1 A     1  2px          0.041900     1.000000
   17.1 A     1  2py          0.041900     1.000000
   18.1 A     1  2pz          0.041900     1.000000
   19.1 A     1  2px          4.810500     1.000000
   20.1 A     1  2py          4.810500     1.000000
   21.1 A     1  2pz          4.810500     1.000000
   22.1 A     1  2px          0.803000     1.000000
   23.1 A     1  2py          0.803000     1.000000
   24.1 A     1  2pz          0.803000     1.000000
   25.1 A     1  3d0          6.214200     1.000000
   26.1 A     1  3d2-         6.214200     1.000000
   27.1 A     1  3d1+         6.214200     1.000000
   28.1 A     1  3d2+         6.214200     1.000000
   29.1 A     1  3d1-         6.214200     1.000000
   30.1 A     1  3d0          0.992100     1.000000
   31.1 A     1  3d2-         0.992100     1.000000
   32.1 A     1  3d1+         0.992100     1.000000
   33.1 A     1  3d2+         0.992100     1.000000
   34.1 A     1  3d1-         0.992100     1.000000
   35.1 A     1  3d0          0.306400     1.000000
   36.1 A     1  3d2-         0.306400     1.000000
   37.1 A     1  3d1+         0.306400     1.000000
   38.1 A     1  3d2+         0.306400     1.000000
   39.1 A     1  3d1-         0.306400     1.000000
   40.1 A     2  1s      456100.000000     0.000049   -0.000014    0.000004    0.000000    0.000000
   41.1 A                 68330.000000     0.000383   -0.000107    0.000032    0.000000    0.000000
   42.1 A                 15550.000000     0.002009   -0.000565    0.000171    0.000000    0.000000
   43.1 A                  4405.000000     0.008386   -0.002361    0.000714    0.000000    0.000000
   44.1 A                  1439.000000     0.029470   -0.008459    0.002567    0.000000    0.000000
                            520.400000     0.087832   -0.025964    0.007886    0.000000    0.000000
                            203.100000     0.211473   -0.068636    0.021087    0.000000    0.000000
                             83.960000     0.365364   -0.141874    0.044226    0.000000    0.000000
                             36.200000     0.340884   -0.199319    0.065167    0.000000    0.000000
                             15.830000     0.102133   -0.019566    0.006030    0.000000    0.000000
                              6.334000     0.003117    0.499741   -0.206495    0.000000    0.000000
                              2.694000     0.001058    0.563736   -0.405871    0.000000    0.000000
                              0.976800    -0.000378    0.079033    0.075956    1.000000    0.000000
                              0.431300     0.000156   -0.008351    0.725661    0.000000    0.000000
                              0.162500    -0.000051    0.002325    0.394423    0.000000    1.000000
   45.1 A     2  1s           0.059100     1.000000
   46.1 A     2  2px        663.300000     0.002404
                            156.800000     0.019215
                             49.980000     0.088510
                             18.420000     0.256020
                              7.240000     0.436927
                              2.922000     0.350334
                              1.022000     0.058549
                              0.381800    -0.004584
                              0.130100     0.002270
   47.1 A     2  2py        663.300000     0.002404
                            156.800000     0.019215
                             49.980000     0.088510
                             18.420000     0.256020
                              7.240000     0.436927
                              2.922000     0.350334
                              1.022000     0.058549
                              0.381800    -0.004584
                              0.130100     0.002270
   48.1 A     2  2pz        663.300000     0.002404
                            156.800000     0.019215
                             49.980000     0.088510
                             18.420000     0.256020
                              7.240000     0.436927
                              2.922000     0.350334
                              1.022000     0.058549
                              0.381800    -0.004584
                              0.130100     0.002270
   49.1 A     2  2px        663.300000    -0.000652
                            156.800000    -0.005194
                             49.980000    -0.024694
                             18.420000    -0.072817
                              7.240000    -0.134030
                              2.922000    -0.094774
                              1.022000     0.262289
                              0.381800     0.564667
                              0.130100     0.341250
   50.1 A     2  2py        663.300000    -0.000652
                            156.800000    -0.005194
                             49.980000    -0.024694
                             18.420000    -0.072817
                              7.240000    -0.134030
                              2.922000    -0.094774
                              1.022000     0.262289
                              0.381800     0.564667
                              0.130100     0.341250
   51.1 A     2  2pz        663.300000    -0.000652
                            156.800000    -0.005194
                             49.980000    -0.024694
                             18.420000    -0.072817
                              7.240000    -0.134030
                              2.922000    -0.094774
                              1.022000     0.262289
                              0.381800     0.564667
                              0.130100     0.341250
   52.1 A     2  2px        663.300000     0.000000
                            156.800000     0.000000
                             49.980000     0.000000
                             18.420000     0.000000
                              7.240000     0.000000
                              2.922000     0.000000
                              1.022000     0.000000
                              0.381800     0.000000
                              0.130100     1.000000
   53.1 A     2  2py        663.300000     0.000000
                            156.800000     0.000000
                             49.980000     0.000000
                             18.420000     0.000000
                              7.240000     0.000000
                              2.922000     0.000000
                              1.022000     0.000000
                              0.381800     0.000000
                              0.130100     1.000000
   54.1 A     2  2pz        663.300000     0.000000
                            156.800000     0.000000
                             49.980000     0.000000
                             18.420000     0.000000
                              7.240000     0.000000
                              2.922000     0.000000
                              1.022000     0.000000
                              0.381800     0.000000
                              0.130100     1.000000
   55.1 A     2  2px          0.041900     1.000000
   56.1 A     2  2py          0.041900     1.000000
   57.1 A     2  2pz          0.041900     1.000000
   58.1 A     2  2px          4.810500     1.000000
   59.1 A     2  2py          4.810500     1.000000
   60.1 A     2  2pz          4.810500     1.000000
   61.1 A     2  2px          0.803000     1.000000
   62.1 A     2  2py          0.803000     1.000000
   63.1 A     2  2pz          0.803000     1.000000
   64.1 A     2  3d0          6.214200     1.000000
   65.1 A     2  3d2-         6.214200     1.000000
   66.1 A     2  3d1+         6.214200     1.000000
   67.1 A     2  3d2+         6.214200     1.000000
   68.1 A     2  3d1-         6.214200     1.000000
   69.1 A     2  3d0          0.992100     1.000000
   70.1 A     2  3d2-         0.992100     1.000000
   71.1 A     2  3d1+         0.992100     1.000000
   72.1 A     2  3d2+         0.992100     1.000000
   73.1 A     2  3d1-         0.992100     1.000000
   74.1 A     2  3d0          0.306400     1.000000
   75.1 A     2  3d2-         0.306400     1.000000
   76.1 A     2  3d1+         0.306400     1.000000
   77.1 A     2  3d2+         0.306400     1.000000
   78.1 A     2  3d1-         0.306400     1.000000

 NUCLEAR CHARGE:                   34
 NUMBER OF PRIMITIVE AOS:         140
 NUMBER OF SYMMETRY AOS:          134
 NUMBER OF CONTRACTIONS:           78   (   78A   )
 NUMBER OF INNER CORE ORBITALS:     2   (    2A   )
 NUMBER OF OUTER CORE ORBITALS:     8   (    8A   )
 NUMBER OF VALENCE ORBITALS:        8   (    8A   )


 NUCLEAR REPULSION ENERGY   76.93154281


 Library entry CL     S aug-cc-pVDZ-MP2F     selected for DF group  1
 Library entry CL     P aug-cc-pVDZ-MP2F     selected for DF group  1
 Library entry CL     D aug-cc-pVDZ-MP2F     selected for DF group  1
 Library entry CL     F aug-cc-pVDZ-MP2F     selected for DF group  1
 Basis set:    DF
 Basis size:   184
 Sphericals:   T
 =======================================
 Centre l       exponent    contractions
 =======================================

    1   s     311.641775      1.000000
    1   s      65.182737      1.000000
    1   s      18.153269      1.000000
    1   s      12.125602      1.000000
    1   s       4.651053      1.000000
    1   s       1.615728      1.000000
    1   s       0.932717      1.000000
    1   s       0.495471      1.000000
    1   s       0.218295      1.000000
    1   s       0.080789      1.000000

    1   p     115.956450      1.000000
    1   p      16.546125      1.000000
    1   p       7.765596      1.000000
    1   p       3.295631      1.000000
    1   p       1.604837      1.000000
    1   p       0.851487      1.000000
    1   p       0.373523      1.000000
    1   p       0.172912      1.000000

    1   d      31.014315      1.000000
    1   d       7.434997      1.000000
    1   d       3.998251      1.000000
    1   d       1.054781      1.000000
    1   d       0.377228      1.000000
    1   d       0.138291      1.000000

    1   f      10.863356      1.000000
    1   f       4.538493      1.000000
    1   f       1.005961      1.000000
    1   f       0.372537      1.000000

    2   s     311.641775      1.000000
    2   s      65.182737      1.000000
    2   s      18.153269      1.000000
    2   s      12.125602      1.000000
    2   s       4.651053      1.000000
    2   s       1.615728      1.000000
    2   s       0.932717      1.000000
    2   s       0.495471      1.000000
    2   s       0.218295      1.000000
    2   s       0.080789      1.000000

    2   p     115.956450      1.000000
    2   p      16.546125      1.000000
    2   p       7.765596      1.000000
    2   p       3.295631      1.000000
    2   p       1.604837      1.000000
    2   p       0.851487      1.000000
    2   p       0.373523      1.000000
    2   p       0.172912      1.000000

    2   d      31.014315      1.000000
    2   d       7.434997      1.000000
    2   d       3.998251      1.000000
    2   d       1.054781      1.000000
    2   d       0.377228      1.000000
    2   d       0.138291      1.000000

    2   f      10.863356      1.000000
    2   f       4.538493      1.000000
    2   f       1.005961      1.000000
    2   f       0.372537      1.000000
 =======================================

 Library entry CL     S aug-cc-pVDZ-JKFI     selected for JK group  1
 Library entry CL     P aug-cc-pVDZ-JKFI     selected for JK group  1
 Library entry CL     D aug-cc-pVDZ-JKFI     selected for JK group  1
 Library entry CL     F aug-cc-pVDZ-JKFI     selected for JK group  1
 Basis set:    JK
 Basis size:   256
 Sphericals:   T
 =======================================
 Centre l       exponent    contractions
 =======================================

    1   s    7082.797058      1.000000
    1   s    2109.309508      1.000000
    1   s     768.412819      1.000000
    1   s     284.792554      1.000000
    1   s     116.553317      1.000000
    1   s      46.394821      1.000000
    1   s      21.956303      1.000000
    1   s       9.993027      1.000000
    1   s       4.719946      1.000000
    1   s       2.657340      1.000000
    1   s       1.081348      1.000000
    1   s       0.531547      1.000000
    1   s       0.233670      1.000000
    1   s       0.102723      1.000000

    1   p     973.735285      1.000000
    1   p     278.991093      1.000000
    1   p     105.886445      1.000000
    1   p      45.231847      1.000000
    1   p      20.289166      1.000000
    1   p       9.582938      1.000000
    1   p       4.464168      1.000000
    1   p       2.362561      1.000000
    1   p       1.149196      1.000000
    1   p       0.603102      1.000000
    1   p       0.305909      1.000000
    1   p       0.155165      1.000000

    1   d     204.380301      1.000000
    1   d      63.693893      1.000000
    1   d      25.726669      1.000000
    1   d      11.602467      1.000000
    1   d       5.457454      1.000000
    1   d       2.883840      1.000000
    1   d       1.339402      1.000000
    1   d       0.616492      1.000000
    1   d       0.274701      1.000000
    1   d       0.122404      1.000000

    1   f       4.204066      1.000000
    1   f       1.201162      1.000000
    1   f       0.499162      1.000000
    1   f       0.207435      1.000000

    2   s    7082.797058      1.000000
    2   s    2109.309508      1.000000
    2   s     768.412819      1.000000
    2   s     284.792554      1.000000
    2   s     116.553317      1.000000
    2   s      46.394821      1.000000
    2   s      21.956303      1.000000
    2   s       9.993027      1.000000
    2   s       4.719946      1.000000
    2   s       2.657340      1.000000
    2   s       1.081348      1.000000
    2   s       0.531547      1.000000
    2   s       0.233670      1.000000
    2   s       0.102723      1.000000

    2   p     973.735285      1.000000
    2   p     278.991093      1.000000
    2   p     105.886445      1.000000
    2   p      45.231847      1.000000
    2   p      20.289166      1.000000
    2   p       9.582938      1.000000
    2   p       4.464168      1.000000
    2   p       2.362561      1.000000
    2   p       1.149196      1.000000
    2   p       0.603102      1.000000
    2   p       0.305909      1.000000
    2   p       0.155165      1.000000

    2   d     204.380301      1.000000
    2   d      63.693893      1.000000
    2   d      25.726669      1.000000
    2   d      11.602467      1.000000
    2   d       5.457454      1.000000
    2   d       2.883840      1.000000
    2   d       1.339402      1.000000
    2   d       0.616492      1.000000
    2   d       0.274701      1.000000
    2   d       0.122404      1.000000

    2   f       4.204066      1.000000
    2   f       1.201162      1.000000
    2   f       0.499162      1.000000
    2   f       0.207435      1.000000
 =======================================

 Library entry CL     S def2-QZVPP-JKFIT     selected for RI group  1
 Library entry CL     P def2-QZVPP-JKFIT     selected for RI group  1
 Library entry CL     D def2-QZVPP-JKFIT     selected for RI group  1
 Library entry CL     F def2-QZVPP-JKFIT     selected for RI group  1
 Library entry CL     G def2-QZVPP-JKFIT     selected for RI group  1
 Basis set:    RI
 Basis size:   256
 Sphericals:   T
 =======================================
 Centre l       exponent    contractions
 =======================================

    1   s    4314.492304      0.113952
    1   s    1746.805329      0.139791
    1   s     742.289220      0.435427
    1   s     330.605087      0.646779

    1   s     154.066270      1.000000
    1   s      74.966927      1.000000
    1   s      37.995926      1.000000
    1   s      20.002388      1.000000
    1   s      10.901937      1.000000
    1   s       6.129562      1.000000
    1   s       3.540945      1.000000
    1   s       2.092553      1.000000
    1   s       1.259119      1.000000
    1   s       0.767609      1.000000
    1   s       0.471693      1.000000
    1   s       0.290625      1.000000

    1   p     608.031690      0.159951
    1   p     222.271889      0.487908

    1   p      85.750428      1.000000
    1   p      34.805164      1.000000
    1   p      14.807712      1.000000
    1   p       6.574415      1.000000
    1   p       3.030700      1.000000
    1   p       1.442283      1.000000
    1   p       0.704078      1.000000
    1   p       0.350162      1.000000
    1   p       0.176131      1.000000
    1   p       0.088932      1.000000

    1   d     195.876234      0.204626
    1   d      65.640548      0.978840

    1   d      27.113701      1.000000
    1   d      12.122091      1.000000
    1   d       5.564124      1.000000
    1   d       2.544286      1.000000
    1   d       1.190254      1.000000
    1   d       0.566146      1.000000
    1   d       0.272023      1.000000
    1   d       0.131146      1.000000

    1   f       8.531085      1.000000
    1   f       2.419706      1.000000
    1   f       0.892293      1.000000
    1   f       0.355202      1.000000

    1   g       1.031984      1.000000

    2   s    4314.492304      0.113952
    2   s    1746.805329      0.139791
    2   s     742.289220      0.435427
    2   s     330.605087      0.646779

    2   s     154.066270      1.000000
    2   s      74.966927      1.000000
    2   s      37.995926      1.000000
    2   s      20.002388      1.000000
    2   s      10.901937      1.000000
    2   s       6.129562      1.000000
    2   s       3.540945      1.000000
    2   s       2.092553      1.000000
    2   s       1.259119      1.000000
    2   s       0.767609      1.000000
    2   s       0.471693      1.000000
    2   s       0.290625      1.000000

    2   p     608.031690      0.159951
    2   p     222.271889      0.487908

    2   p      85.750428      1.000000
    2   p      34.805164      1.000000
    2   p      14.807712      1.000000
    2   p       6.574415      1.000000
    2   p       3.030700      1.000000
    2   p       1.442283      1.000000
    2   p       0.704078      1.000000
    2   p       0.350162      1.000000
    2   p       0.176131      1.000000
    2   p       0.088932      1.000000

    2   d     195.876234      0.204626
    2   d      65.640548      0.978840

    2   d      27.113701      1.000000
    2   d      12.122091      1.000000
    2   d       5.564124      1.000000
    2   d       2.544286      1.000000
    2   d       1.190254      1.000000
    2   d       0.566146      1.000000
    2   d       0.272023      1.000000
    2   d       0.131146      1.000000

    2   f       8.531085      1.000000
    2   f       2.419706      1.000000
    2   f       0.892293      1.000000
    2   f       0.355202      1.000000

    2   g       1.031984      1.000000
 =======================================


 **********************************************************************************************************************************

 EXTRA SYMMETRY OF AOS IN SYMMETRY 1:   1 1 1 1 1 1 2 3 1 2   3 1 2 3 1 2 3 1 2 3   1 2 3 1 1 4 2 5 3 1   4 2 5 3 1 4 2 5 3 1
                                        1 1 1 1 1 2 3 1 2 3   1 2 3 1 2 3 1 2 3 1   2 3 1 1 4 2 5 3 1 4   2 5 3 1 4 2 5 3

 Eigenvalues of metric

         1 0.250E-02 0.562E-02 0.600E-02 0.790E-02 0.848E-02 0.848E-02 0.895E-02 0.102E-01


 OPERATOR DM      FOR CENTER  0  COORDINATES:    0.000000    0.000000    0.000000


 **********************************************************************************************************************************
 DATASETS  * FILE   NREC   LENGTH (MB)   RECORD NAMES
              1      18       28.81       500      610      700      900      950      970     1000      129      960     1100   
                                          VAR    BASINP    GEOM    SYMINP    ZMAT    AOBASIS   BASIS     P2S    ABASIS      S 
                                         1400     1410     1200     1210     1080     1600     1650     1700   
                                           T        V       H0       H01     AOSYM     SMH    MOLCAS    OPER   

 PROGRAMS   *        TOTAL       INT
 CPU TIMES  *         0.36      0.22
 REAL TIME  *         1.14 SEC
 DISK USED  *        29.10 MB (local),      465.63 MB (total)
 GA USED    *         0.00 MB       (max)       0.00 MB       (current)
 **********************************************************************************************************************************


 Program * Restricted Hartree-Fock

 Coulomb and exchange fitting
 Thresholds for fitting:       THRAO_COUL= 1.0D-15    THRAO_EXCH= 1.0D-13    THRMO= 1.0D-12    THRPROD= 1.0D-12    THRASM= 1.0D-12
                               THR2HLF=    1.0D-12

 Basis set JK loaded. Number of basis functions: 256

 Orbital guess generated from atomic densities. Full valence occupancy:   18
 Using density fitting in orbital guess


 Initial occupancy:  17

 NELEC=   34   SYM=1   MS2= 0   THRE=1.0D-11   THRD=1.0D-06   THRG=1.0D-06  HFMA2=F  DIIS_START=2   DIIS_MAX=10   DIIS_INCORE=F

 Level shifts:    0.00 (CLOSED)    0.00 (OPEN)    0.30 (GAP_MIN)

 ITER           ETOT              DE          GRAD        DDIFF     DIIS  NEXP   TIME(IT)  TIME(TOT)  DIAG
   1     -918.97599380    -918.97599380     0.00D+00     0.15D+00     0     0       0.01      0.02    start
   2     -918.99057805      -0.01458426     0.42D-02     0.68D-02     1     0       0.01      0.03    diag
   3     -918.99323811      -0.00266005     0.21D-02     0.13D-02     2     0       0.01      0.04    diag
   4     -918.99344288      -0.00020478     0.29D-03     0.49D-03     3     0       0.01      0.05    diag
   5     -918.99345605      -0.00001317     0.73D-04     0.11D-03     4     0       0.01      0.06    diag
   6     -918.99345629      -0.00000024     0.11D-04     0.17D-04     5     0       0.02      0.08    diag
   7     -918.99345629      -0.00000000     0.16D-05     0.22D-05     6     0       0.00      0.08    diag
   8     -918.99345629      -0.00000000     0.36D-06     0.81D-06     7     0       0.01      0.09    fixocc
   9     -918.99345629      -0.00000000     0.39D-07     0.69D-07     8     0       0.01      0.10    diag
  10     -918.99345629      -0.00000000     0.60D-08     0.14D-07     0     0       0.01      0.11    diag/orth

 Final occupancy:  17

 !RHF STATE 1.1 Energy               -918.993456293964
  RHF One-electron energy           -1422.997917394899
  RHF Two-electron energy             427.072918291454
  RHF Kinetic energy                  919.006230983383
  RHF Nuclear energy                   76.931542809481
  RHF Virial quotient                  -0.999986099453

 !RHF STATE 1.1 Dipole moment           0.00000000    -0.00000000     0.00000000
 Dipole moment /Debye                   0.00000000    -0.00000000     0.00000000

 ELECTRON ORBITALS
 =================

  Orbital  Occupation    Energy    Cen Mu Typ  Coefficients
    1.1     2.00000  -104.89892     1  1  s    0.70711    2  1  s    0.70711
    2.1     2.00000  -104.89892     1  1  s    0.70711    2  1  s   -0.70711
    3.1     2.00000   -10.62153     1  2  s    0.70683    2  2  s    0.70683
    4.1     2.00000   -10.62136     1  2  s    0.70641    2  2  s   -0.70641
    5.1     2.00000    -8.08942     1  1  pz   0.70504    2  1  pz  -0.70504
    6.1     2.00000    -8.08915     1  1  pz   0.70418    2  1  pz   0.70418
    7.1     2.00000    -8.08496     1  1  px  -0.33314    1  1  py   0.62534    2  1  px  -0.33314    2  1  py   0.62534
    8.1     2.00000    -8.08496     1  1  px   0.62534    1  1  py   0.33314    2  1  px   0.62534    2  1  py   0.33314
    9.1     2.00000    -8.08495     1  1  px   0.66471    2  1  px  -0.66471
   10.1     2.00000    -8.08495     1  1  py   0.66471    2  1  py  -0.66471
   11.1     2.00000    -1.22208     1  3  s    0.66591    2  3  s    0.66591
   12.1     2.00000    -1.01645     1  3  s    0.71694    2  3  s   -0.71694
   13.1     2.00000    -0.60072     1  2  pz   0.71678    2  2  pz  -0.71678
   14.1     2.00000    -0.56983     1  2  px  -0.32075    1  2  py   0.62156    2  2  px  -0.32075    2  2  py   0.62156
   15.1     2.00000    -0.56983     1  2  px   0.62156    1  2  py   0.32075    2  2  px   0.62156    2  2  py   0.32075
   16.1     2.00000    -0.44400     1  2  py   0.73705    2  2  py  -0.73705
   17.1     2.00000    -0.44400     1  2  px   0.73705    2  2  px  -0.73705


 HOMO     17.1    -0.443999 =     -12.0818eV
 LUMO     18.1     0.022189 =       0.6038eV
 LUMO-HOMO         0.466188 =      12.6856eV

 Orbitals saved in record  2100.2


 **********************************************************************************************************************************
 DATASETS  * FILE   NREC   LENGTH (MB)   RECORD NAMES
              1      18       28.81       500      610      700      900      950      970     1000      129      960     1100   
                                          VAR    BASINP    GEOM    SYMINP    ZMAT    AOBASIS   BASIS     P2S    ABASIS      S 
                                         1400     1410     1200     1210     1080     1600     1650     1700   
                                           T        V       H0       H01     AOSYM     SMH    MOLCAS    OPER   

              2       4        0.47       700     1000      520     2100   
                                         GEOM     BASIS   MCVARS     RHF  

 PROGRAMS   *        TOTAL     DF-HF       INT
 CPU TIMES  *         0.67      0.30      0.22
 REAL TIME  *         1.93 SEC
 DISK USED  *        29.73 MB (local),      475.63 MB (total)
 SF USED    *         2.74 MB
 GA USED    *         0.00 MB       (max)       0.00 MB       (current)
 **********************************************************************************************************************************

 Library entry CL     S aug-cc-pVDZ-MP2F     selected for DF group  1
 Library entry CL     P aug-cc-pVDZ-MP2F     selected for DF group  1
 Library entry CL     D aug-cc-pVDZ-MP2F     selected for DF group  1
 Library entry CL     F aug-cc-pVDZ-MP2F     selected for DF group  1
 Basis set:    DF
 Basis size:   184
 Sphericals:   T
 =======================================
 Centre l       exponent    contractions
 =======================================

    1   s     311.641775      1.000000
    1   s      65.182737      1.000000
    1   s      18.153269      1.000000
    1   s      12.125602      1.000000
    1   s       4.651053      1.000000
    1   s       1.615728      1.000000
    1   s       0.932717      1.000000
    1   s       0.495471      1.000000
    1   s       0.218295      1.000000
    1   s       0.080789      1.000000

    1   p     115.956450      1.000000
    1   p      16.546125      1.000000
    1   p       7.765596      1.000000
    1   p       3.295631      1.000000
    1   p       1.604837      1.000000
    1   p       0.851487      1.000000
    1   p       0.373523      1.000000
    1   p       0.172912      1.000000

    1   d      31.014315      1.000000
    1   d       7.434997      1.000000
    1   d       3.998251      1.000000
    1   d       1.054781      1.000000
    1   d       0.377228      1.000000
    1   d       0.138291      1.000000

    1   f      10.863356      1.000000
    1   f       4.538493      1.000000
    1   f       1.005961      1.000000
    1   f       0.372537      1.000000

    2   s     311.641775      1.000000
    2   s      65.182737      1.000000
    2   s      18.153269      1.000000
    2   s      12.125602      1.000000
    2   s       4.651053      1.000000
    2   s       1.615728      1.000000
    2   s       0.932717      1.000000
    2   s       0.495471      1.000000
    2   s       0.218295      1.000000
    2   s       0.080789      1.000000

    2   p     115.956450      1.000000
    2   p      16.546125      1.000000
    2   p       7.765596      1.000000
    2   p       3.295631      1.000000
    2   p       1.604837      1.000000
    2   p       0.851487      1.000000
    2   p       0.373523      1.000000
    2   p       0.172912      1.000000

    2   d      31.014315      1.000000
    2   d       7.434997      1.000000
    2   d       3.998251      1.000000
    2   d       1.054781      1.000000
    2   d       0.377228      1.000000
    2   d       0.138291      1.000000

    2   f      10.863356      1.000000
    2   f       4.538493      1.000000
    2   f       1.005961      1.000000
    2   f       0.372537      1.000000
 =======================================

 Library entry CL     S aug-cc-pVDZ-JKFI     selected for JK group  1
 Library entry CL     P aug-cc-pVDZ-JKFI     selected for JK group  1
 Library entry CL     D aug-cc-pVDZ-JKFI     selected for JK group  1
 Library entry CL     F aug-cc-pVDZ-JKFI     selected for JK group  1
 Basis set:    JK
 Basis size:   256
 Sphericals:   T
 =======================================
 Centre l       exponent    contractions
 =======================================

    1   s    7082.797058      1.000000
    1   s    2109.309508      1.000000
    1   s     768.412819      1.000000
    1   s     284.792554      1.000000
    1   s     116.553317      1.000000
    1   s      46.394821      1.000000
    1   s      21.956303      1.000000
    1   s       9.993027      1.000000
    1   s       4.719946      1.000000
    1   s       2.657340      1.000000
    1   s       1.081348      1.000000
    1   s       0.531547      1.000000
    1   s       0.233670      1.000000
    1   s       0.102723      1.000000

    1   p     973.735285      1.000000
    1   p     278.991093      1.000000
    1   p     105.886445      1.000000
    1   p      45.231847      1.000000
    1   p      20.289166      1.000000
    1   p       9.582938      1.000000
    1   p       4.464168      1.000000
    1   p       2.362561      1.000000
    1   p       1.149196      1.000000
    1   p       0.603102      1.000000
    1   p       0.305909      1.000000
    1   p       0.155165      1.000000

    1   d     204.380301      1.000000
    1   d      63.693893      1.000000
    1   d      25.726669      1.000000
    1   d      11.602467      1.000000
    1   d       5.457454      1.000000
    1   d       2.883840      1.000000
    1   d       1.339402      1.000000
    1   d       0.616492      1.000000
    1   d       0.274701      1.000000
    1   d       0.122404      1.000000

    1   f       4.204066      1.000000
    1   f       1.201162      1.000000
    1   f       0.499162      1.000000
    1   f       0.207435      1.000000

    2   s    7082.797058      1.000000
    2   s    2109.309508      1.000000
    2   s     768.412819      1.000000
    2   s     284.792554      1.000000
    2   s     116.553317      1.000000
    2   s      46.394821      1.000000
    2   s      21.956303      1.000000
    2   s       9.993027      1.000000
    2   s       4.719946      1.000000
    2   s       2.657340      1.000000
    2   s       1.081348      1.000000
    2   s       0.531547      1.000000
    2   s       0.233670      1.000000
    2   s       0.102723      1.000000

    2   p     973.735285      1.000000
    2   p     278.991093      1.000000
    2   p     105.886445      1.000000
    2   p      45.231847      1.000000
    2   p      20.289166      1.000000
    2   p       9.582938      1.000000
    2   p       4.464168      1.000000
    2   p       2.362561      1.000000
    2   p       1.149196      1.000000
    2   p       0.603102      1.000000
    2   p       0.305909      1.000000
    2   p       0.155165      1.000000

    2   d     204.380301      1.000000
    2   d      63.693893      1.000000
    2   d      25.726669      1.000000
    2   d      11.602467      1.000000
    2   d       5.457454      1.000000
    2   d       2.883840      1.000000
    2   d       1.339402      1.000000
    2   d       0.616492      1.000000
    2   d       0.274701      1.000000
    2   d       0.122404      1.000000

    2   f       4.204066      1.000000
    2   f       1.201162      1.000000
    2   f       0.499162      1.000000
    2   f       0.207435      1.000000
 =======================================

 Library entry CL     S def2-QZVPP-JKFIT     selected for RI group  1
 Library entry CL     P def2-QZVPP-JKFIT     selected for RI group  1
 Library entry CL     D def2-QZVPP-JKFIT     selected for RI group  1
 Library entry CL     F def2-QZVPP-JKFIT     selected for RI group  1
 Library entry CL     G def2-QZVPP-JKFIT     selected for RI group  1
 Basis set:    RI
 Basis size:   256
 Sphericals:   T
 =======================================
 Centre l       exponent    contractions
 =======================================

    1   s    4314.492304      0.113952
    1   s    1746.805329      0.139791
    1   s     742.289220      0.435427
    1   s     330.605087      0.646779

    1   s     154.066270      1.000000
    1   s      74.966927      1.000000
    1   s      37.995926      1.000000
    1   s      20.002388      1.000000
    1   s      10.901937      1.000000
    1   s       6.129562      1.000000
    1   s       3.540945      1.000000
    1   s       2.092553      1.000000
    1   s       1.259119      1.000000
    1   s       0.767609      1.000000
    1   s       0.471693      1.000000
    1   s       0.290625      1.000000

    1   p     608.031690      0.159951
    1   p     222.271889      0.487908

    1   p      85.750428      1.000000
    1   p      34.805164      1.000000
    1   p      14.807712      1.000000
    1   p       6.574415      1.000000
    1   p       3.030700      1.000000
    1   p       1.442283      1.000000
    1   p       0.704078      1.000000
    1   p       0.350162      1.000000
    1   p       0.176131      1.000000
    1   p       0.088932      1.000000

    1   d     195.876234      0.204626
    1   d      65.640548      0.978840

    1   d      27.113701      1.000000
    1   d      12.122091      1.000000
    1   d       5.564124      1.000000
    1   d       2.544286      1.000000
    1   d       1.190254      1.000000
    1   d       0.566146      1.000000
    1   d       0.272023      1.000000
    1   d       0.131146      1.000000

    1   f       8.531085      1.000000
    1   f       2.419706      1.000000
    1   f       0.892293      1.000000
    1   f       0.355202      1.000000

    1   g       1.031984      1.000000

    2   s    4314.492304      0.113952
    2   s    1746.805329      0.139791
    2   s     742.289220      0.435427
    2   s     330.605087      0.646779

    2   s     154.066270      1.000000
    2   s      74.966927      1.000000
    2   s      37.995926      1.000000
    2   s      20.002388      1.000000
    2   s      10.901937      1.000000
    2   s       6.129562      1.000000
    2   s       3.540945      1.000000
    2   s       2.092553      1.000000
    2   s       1.259119      1.000000
    2   s       0.767609      1.000000
    2   s       0.471693      1.000000
    2   s       0.290625      1.000000

    2   p     608.031690      0.159951
    2   p     222.271889      0.487908

    2   p      85.750428      1.000000
    2   p      34.805164      1.000000
    2   p      14.807712      1.000000
    2   p       6.574415      1.000000
    2   p       3.030700      1.000000
    2   p       1.442283      1.000000
    2   p       0.704078      1.000000
    2   p       0.350162      1.000000
    2   p       0.176131      1.000000
    2   p       0.088932      1.000000

    2   d     195.876234      0.204626
    2   d      65.640548      0.978840

    2   d      27.113701      1.000000
    2   d      12.122091      1.000000
    2   d       5.564124      1.000000
    2   d       2.544286      1.000000
    2   d       1.190254      1.000000
    2   d       0.566146      1.000000
    2   d       0.272023      1.000000
    2   d       0.131146      1.000000

    2   f       8.531085      1.000000
    2   f       2.419706      1.000000
    2   f       0.892293      1.000000
    2   f       0.355202      1.000000

    2   g       1.031984      1.000000
 =======================================


 PROGRAM * MP2 (Closed-shell)     Authors: C. Hampel, H.-J. Werner, 1991, M. Deegan, P.J. Knowles, 1992

                                   MP2-F12 implementation by H.-J. Werner, 2007

                   Density fitting integral evaluation by F.R. Manby, 2003,2007, G. Knizia, 2010



 Convergence thresholds:  THRVAR = 1.00D-08  THRDEN = 1.00D-09

 Number of core orbitals:          10 (  10 )
 Number of closed-shell orbitals:   7 (   7 )
 Number of external orbitals:      61 (  61 )

 Molecular orbitals read from record     2100.2  Type=RHF/CANONICAL  

 MP2-F12 correlation treatment (H.-J. Werner, 2006)
 ==================================================

 Some Fock operators are calculated for F12-singles only.

 AO(A)-basis ORBITAL           loaded. Number of functions:      78
 RI(R)-basis RI                loaded. Number of functions:     256
 Basis set JK loaded. Number of basis functions: 256 
 DF-basis JK                   loaded. Number of functions:     256

 Screening thresholds:   THRAO=  1.00D-10  THRMO=  1.00D-09  THRPROD=  1.00D-09
                         THRSW=  1.00D-05  THROV=  1.00D-12  THRAOF12= 1.00D-08

 CPU time for Fock operators                      0.08 sec

 Construction of ABS:
 Smallest eigenvalue of S          5.05E-06  (threshold= 1.00E-09)
 Ratio eigmin/eigmax               7.12E-07  (threshold= 1.00E-09)
 Smallest eigenvalue of S kept     5.05E-06  (threshold= 5.05E-06, 0 functions deleted, 256 kept)

 Construction of CABS:
 Smallest eigenvalue of S          2.35E-08  (threshold= 1.00E-09)
 Ratio eigmin/eigmax               2.35E-08  (threshold= 1.00E-09)
 Smallest eigenvalue of S kept     2.35E-08  (threshold= 2.35E-08, 0 functions deleted, 256 kept)

 CPU time for CABS singles                        0.01 sec

 CABS-singles contribution of  -0.00953503 patched into reference energy.
 New reference energy        -919.00299132

 Leaving lmp2-f12 by request (CABS_SINGLES < 0) after calculation of singles.


  Reference energy                   -918.993456293963
  F12 singles correction               -0.009535025557

 F12 singles corrections added to reference energy

  New reference energy               -919.002991319520

  F12 singlet correction                0.000000000000
  F12 triplet correction                0.000000000000
  F12 total correction                  0.000000000000
  MP2-F12 singlet pair energy           0.000000000000
  MP2-F12 triplet pair energy           0.000000000000
  MP2-F12 correlation energy            0.000000000000

 !MP2-F12 total energy               -919.002991319520


 **********************************************************************************************************************************
 DATASETS  * FILE   NREC   LENGTH (MB)   RECORD NAMES
              1      18       28.81       500      610      700      900      950      970     1000      129      960     1100   
                                          VAR    BASINP    GEOM    SYMINP    ZMAT    AOBASIS   BASIS     P2S    ABASIS      S 
                                         1400     1410     1200     1210     1080     1600     1650     1700   
                                           T        V       H0       H01     AOSYM     SMH    MOLCAS    OPER   

              2       5        0.53       700     1000      520     2100     7360   
                                         GEOM     BASIS   MCVARS     RHF    F12ABS    

 PROGRAMS   *        TOTAL   DF-CABS     DF-HF       INT
 CPU TIMES  *         0.83      0.16      0.30      0.22
 REAL TIME  *         2.13 SEC
 DISK USED  *        29.73 MB (local),      475.63 MB (total)
 SF USED    *        47.97 MB
 GA USED    *         3.05 MB       (max)       0.00 MB       (current)
 **********************************************************************************************************************************

 DF-CABS/cc-pVDZ-F12 energy=   -919.002991319520

         DF-CABS           DF-HF
   -919.00299132   -918.99345629
 **********************************************************************************************************************************
 Molpro calculation terminated
