
 Working directory              : /scratch/emmanous/3821505.pbs01/molpro.xdGbRcWk9L/
 Global scratch directory       : /scratch/emmanous/3821505.pbs01/molpro.xdGbRcWk9L/
 Wavefunction directory         : /home/emmanous/wfu/
 Main file repository           : /scratch/emmanous/3821505.pbs01/molpro.xdGbRcWk9L/

 id        : wis

 Nodes     nprocs
 cff051      16
 GA implementation: MPI file
 GA implementation (serial work in mppx): MPI file

 Using DEFAULT tuning parameter for ncache   :   16384
 Using DEFAULT tuning parameter for mflopdgm :   10000
 Using DEFAULT tuning parameter for mflopdgv :    4000
 Using DEFAULT tuning parameter for mflopmxm :    5000
 Using DEFAULT tuning parameter for mflopmxv :    4000
 Using DEFAULT tuning parameter for mindgm   :       1
 Using DEFAULT tuning parameter for mindgc   :       4
 Using DEFAULT tuning parameter for mindgf   :    5000
 Using DEFAULT tuning parameter for mindgl   :       4
 Using DEFAULT tuning parameter for mindgr   :       1
 Using DEFAULT tuning parameter for mindgv   :      20
 Using DEFAULT tuning parameter for mincuda  :     500
 Using DEFAULT tuning parameter for mxmblk   :      64
 Using DEFAULT tuning parameter for mxmbln   :      64
 Using DEFAULT tuning parameter for nroll    :       2
 Using custom tuning parameter for ngpus     :       0
 Using customized tuning parameters: mindgm=1; mindgv=20; mindgc=4; mindgr=1; noblas=0; minvec=7

 Fortran compiler: integer size=8, double size=8, logical size=8
 default implementation of scratch files=sf  


 Variables initialized (1025), CPU time= 0.01 sec
 gprint,basis
 gthresh,energy=1d-9
 ANGSTROM
 geomtyp=xyz
 charge=0
 multiplicity=1
 nosym
 geom={
 Cl ,0.0000 ,0.0000 ,0.0000
 Cl ,0.0000 ,0.0000 ,1.9879
 }
 
 basis={
 default,aug-cc-pV5Z
 set,jk
 default,aug-cc-pV5Z/JKFIT
 }
 {df-hf,df_basis=jk
 wf,,,$multiplicity-1
 print,orbitals
 maxit,300}
 Commands initialized (840), CPU time= 0.01 sec, 684 directives.
 Default parameters read. Elapsed time= 0.08 sec

 Using DEFAULT tuning parameter for mpplat   :       3
 Using DEFAULT tuning parameter for mppspeed :    1600
 Checking input...
 Passed
1


                                         ***  PROGRAM SYSTEM MOLPRO  ***
                                       Copyright, TTI GmbH Stuttgart, 2015
                                    Version 2022.3 linked Wed Nov 30 13:40:34 2022


 **********************************************************************************************************************************
 LABEL *                                                                                 
  64 bit mpp version                                                                     DATE: 13-Jul-23          TIME: 09:13:27  
 **********************************************************************************************************************************

 SHA1:             e31ec9a5ea85254ab76f59d122cbdd51c71cf98b
 **********************************************************************************************************************************

 Memory per process:      1000 MW
 Total memory per node:  16000 MW

 GA preallocation disabled
 GA check disabled

 Variable memory set to 1000.0 MW



 THRESHOLDS:

 ZERO    =  1.00D-12  ONEINT  =  1.00D-12  TWOINT  =  1.00D-11  PREFAC  =  1.00D-14  XXXXXX  =  1.00D-09  EORDER  =  1.00D-04
 ENERGY  =  1.00D-09  ETEST   =  0.00D+00  EDENS   =  0.00D+00  THRDEDEF=  1.00D-06  GRADIENT=  1.00D-05  STEP    =  1.00D-03
 ORBITAL =  1.00D-05  CIVEC   =  1.00D-05  COEFF   =  1.00D-04  PRINTCI =  5.00D-02  PUNCHCI =  9.90D+01  OPTGRAD =  3.00D-04
 OPTENERG=  1.00D-06  OPTSTEP =  3.00D-04  THRGRAD =  1.00D-10  COMPRESS=  1.00D-11  VARMIN  =  1.00D-07  VARMAX  =  1.00D-03
 THRDOUB =  0.00D+00  THRDIV  =  1.00D-05  THRRED  =  1.00D-07  THRPSP  =  1.00D+00  THRDC   =  1.00D-10  THRCS   =  1.00D-10
 THRNRM  =  1.00D-08  THREQ   =  0.00D+00  THRDE   =  1.00D+00  THRREF  =  1.00D-05  SPARFAC =  1.00D+00  THRDLP  =  1.00D-07
 THRDIA  =  1.00D-10  THRDLS  =  1.00D-07  THRGPS  =  0.00D+00  THRKEX  =  0.00D+00  THRDIS  =  2.00D-01  THRVAR  =  1.00D-10
 THRLOC  =  1.00D-06  THRGAP  =  1.00D-06  THRLOCT = -1.00D+00  THRGAPT = -1.00D+00  THRORB  =  1.00D-06  THRMLTP =  0.00D+00
 THRCPQCI=  1.00D-10  KEXTA   =  0.00D+00  THRCOARS=  0.00D+00  SYMTOL  =  1.00D-06  GRADTOL =  1.00D-06  THROVL  =  1.00D-08
 THRORTH =  1.00D-08  THRDLOVL= -1.00D+00  GRID    =  1.00D-06  GRIDMAX =  1.00D-03  DTMAX   =  0.00D+00  THROCCDE=  1.00D-01
 THROCCDE=  1.00D-01  THRPRINT=  2.50D-01

 SETTING GEOMTYP        =    XYZ
 SETTING CHARGE         =      0.0000000D+00                                  
 SETTING MULTIPLICITY   =         1.00000000                                  
 ZSYMEL=NOSYM
 ZUNIT=ANG

 SETTING BASIS          =    AUG-CC-PV5Z


 Recomputing integrals since basis changed


 Using spherical harmonics

 Library entry CL     S aug-cc-pV5Z          selected for orbital group  1
 Library entry CL     P aug-cc-pV5Z          selected for orbital group  1
 Library entry CL     D aug-cc-pV5Z          selected for orbital group  1
 Library entry CL     F aug-cc-pV5Z          selected for orbital group  1
 Library entry CL     G aug-cc-pV5Z          selected for orbital group  1
 Library entry CL     H aug-cc-pV5Z          selected for orbital group  1


 PROGRAM * SEWARD (Integral evaluation for generally contracted gaussian basis sets)     Author: Roland Lindh, 1990

 Geometry written to block  1 of record 700


 Point group  C1  



 ATOMIC COORDINATES

 NR  ATOM    CHARGE       X              Y              Z

   1  CL     17.00    0.000000000    0.000000000    0.000000000
   2  CL     17.00    0.000000000    0.000000000    3.756586563

 Bond lengths in Bohr (Angstrom)

 1-2  3.756586563
     ( 1.987900000)


 BASIS DATA

   Nr Sym  Nuc  Type         Exponents   Contraction coefficients

    1.1 A     1  1s     6410000.000000     0.000002   -0.000001    0.000000    0.000000    0.000000    0.000000
                                           0.000000
    2.1 A                959600.000000     0.000014   -0.000004    0.000001    0.000000    0.000000    0.000000
                                           0.000000
    3.1 A                218300.000000     0.000074   -0.000021    0.000006    0.000000    0.000000    0.000000
                                           0.000000
    4.1 A                 61810.000000     0.000314   -0.000088    0.000027    0.000000    0.000000    0.000000
                                           0.000000
    5.1 A                 20140.000000     0.001146   -0.000322    0.000097    0.000000    0.000000    0.000000
                                           0.000000
    6.1 A                  7264.000000     0.003739   -0.001053    0.000318    0.000000    0.000000    0.000000
                                           0.000000
    7.1 A                  2832.000000     0.011095   -0.003142    0.000952    0.000000    0.000000    0.000000
                                           0.000000
                           1175.000000     0.030115   -0.008664    0.002624    0.000000    0.000000    0.000000
                                           0.000000
                            512.600000     0.073914   -0.021935    0.006682    0.000000    0.000000    0.000000
                                           0.000000
                            233.000000     0.158258   -0.050258    0.015359    0.000000    0.000000    0.000000
                                           0.000000
                            109.500000     0.274753   -0.099541    0.030943    0.000000    0.000000    0.000000
                                           0.000000
                             52.860000     0.334066   -0.157647    0.050064    0.000000    0.000000    0.000000
                                           0.000000
                             25.840000     0.217589   -0.146024    0.048978    0.000000    0.000000    0.000000
                                           0.000000
                             12.170000     0.045728    0.069223   -0.026081    0.000000    0.000000    0.000000
                                           0.000000
                              6.030000    -0.000135    0.430412   -0.178426    0.000000    0.000000    0.000000
                                           0.000000
                              3.012000     0.001639    0.490802   -0.332324    0.000000    0.000000    0.000000
                                           0.000000
                              1.511000    -0.000522    0.158390   -0.132008    1.000000    0.000000    0.000000
                                           0.000000
                              0.660400     0.000181    0.008399    0.440556    0.000000    1.000000    0.000000
                                           0.000000
                              0.292600    -0.000100    0.000768    0.611891    0.000000    0.000000    1.000000
                                           0.000000
                              0.125400     0.000019    0.000227    0.193172    0.000000    0.000000    0.000000
                                           1.000000
    8.1 A     1  1s           0.047900     1.000000
    9.1 A     1  2px       2548.000000     0.000236
                            603.700000     0.002052
                            195.600000     0.011154
                             74.150000     0.043982
                             30.940000     0.129994
                             13.690000     0.272959
                              6.229000     0.383690
                              2.878000     0.291870
                              1.282000     0.070446
                              0.564100     0.001288
                              0.234800     0.001826
                              0.093120     0.000020
   10.1 A     1  2py       2548.000000     0.000236
                            603.700000     0.002052
                            195.600000     0.011154
                             74.150000     0.043982
                             30.940000     0.129994
                             13.690000     0.272959
                              6.229000     0.383690
                              2.878000     0.291870
                              1.282000     0.070446
                              0.564100     0.001288
                              0.234800     0.001826
                              0.093120     0.000020
   11.1 A     1  2pz       2548.000000     0.000236
                            603.700000     0.002052
                            195.600000     0.011154
                             74.150000     0.043982
                             30.940000     0.129994
                             13.690000     0.272959
                              6.229000     0.383690
                              2.878000     0.291870
                              1.282000     0.070446
                              0.564100     0.001288
                              0.234800     0.001826
                              0.093120     0.000020
   12.1 A     1  2px       2548.000000    -0.000064
                            603.700000    -0.000553
                            195.600000    -0.003028
                             74.150000    -0.012065
                             30.940000    -0.036635
                             13.690000    -0.079076
                              6.229000    -0.117422
                              2.878000    -0.086094
                              1.282000     0.140308
                              0.564100     0.422336
                              0.234800     0.446363
                              0.093120     0.166634
   13.1 A     1  2py       2548.000000    -0.000064
                            603.700000    -0.000553
                            195.600000    -0.003028
                             74.150000    -0.012065
                             30.940000    -0.036635
                             13.690000    -0.079076
                              6.229000    -0.117422
                              2.878000    -0.086094
                              1.282000     0.140308
                              0.564100     0.422336
                              0.234800     0.446363
                              0.093120     0.166634
   14.1 A     1  2pz       2548.000000    -0.000064
                            603.700000    -0.000553
                            195.600000    -0.003028
                             74.150000    -0.012065
                             30.940000    -0.036635
                             13.690000    -0.079076
                              6.229000    -0.117422
                              2.878000    -0.086094
                              1.282000     0.140308
                              0.564100     0.422336
                              0.234800     0.446363
                              0.093120     0.166634
   15.1 A     1  2px       2548.000000     0.000000
                            603.700000     0.000000
                            195.600000     0.000000
                             74.150000     0.000000
                             30.940000     0.000000
                             13.690000     0.000000
                              6.229000     0.000000
                              2.878000     0.000000
                              1.282000     1.000000
                              0.564100     0.000000
                              0.234800     0.000000
                              0.093120     0.000000
   16.1 A     1  2py       2548.000000     0.000000
                            603.700000     0.000000
                            195.600000     0.000000
                             74.150000     0.000000
                             30.940000     0.000000
                             13.690000     0.000000
                              6.229000     0.000000
                              2.878000     0.000000
                              1.282000     1.000000
                              0.564100     0.000000
                              0.234800     0.000000
                              0.093120     0.000000
   17.1 A     1  2pz       2548.000000     0.000000
                            603.700000     0.000000
                            195.600000     0.000000
                             74.150000     0.000000
                             30.940000     0.000000
                             13.690000     0.000000
                              6.229000     0.000000
                              2.878000     0.000000
                              1.282000     1.000000
                              0.564100     0.000000
                              0.234800     0.000000
                              0.093120     0.000000
   18.1 A     1  2px       2548.000000     0.000000
                            603.700000     0.000000
                            195.600000     0.000000
                             74.150000     0.000000
                             30.940000     0.000000
                             13.690000     0.000000
                              6.229000     0.000000
                              2.878000     0.000000
                              1.282000     0.000000
                              0.564100     1.000000
                              0.234800     0.000000
                              0.093120     0.000000
   19.1 A     1  2py       2548.000000     0.000000
                            603.700000     0.000000
                            195.600000     0.000000
                             74.150000     0.000000
                             30.940000     0.000000
                             13.690000     0.000000
                              6.229000     0.000000
                              2.878000     0.000000
                              1.282000     0.000000
                              0.564100     1.000000
                              0.234800     0.000000
                              0.093120     0.000000
   20.1 A     1  2pz       2548.000000     0.000000
                            603.700000     0.000000
                            195.600000     0.000000
                             74.150000     0.000000
                             30.940000     0.000000
                             13.690000     0.000000
                              6.229000     0.000000
                              2.878000     0.000000
                              1.282000     0.000000
                              0.564100     1.000000
                              0.234800     0.000000
                              0.093120     0.000000
   21.1 A     1  2px       2548.000000     0.000000
                            603.700000     0.000000
                            195.600000     0.000000
                             74.150000     0.000000
                             30.940000     0.000000
                             13.690000     0.000000
                              6.229000     0.000000
                              2.878000     0.000000
                              1.282000     0.000000
                              0.564100     0.000000
                              0.234800     1.000000
                              0.093120     0.000000
   22.1 A     1  2py       2548.000000     0.000000
                            603.700000     0.000000
                            195.600000     0.000000
                             74.150000     0.000000
                             30.940000     0.000000
                             13.690000     0.000000
                              6.229000     0.000000
                              2.878000     0.000000
                              1.282000     0.000000
                              0.564100     0.000000
                              0.234800     1.000000
                              0.093120     0.000000
   23.1 A     1  2pz       2548.000000     0.000000
                            603.700000     0.000000
                            195.600000     0.000000
                             74.150000     0.000000
                             30.940000     0.000000
                             13.690000     0.000000
                              6.229000     0.000000
                              2.878000     0.000000
                              1.282000     0.000000
                              0.564100     0.000000
                              0.234800     1.000000
                              0.093120     0.000000
   24.1 A     1  2px       2548.000000     0.000000
                            603.700000     0.000000
                            195.600000     0.000000
                             74.150000     0.000000
                             30.940000     0.000000
                             13.690000     0.000000
                              6.229000     0.000000
                              2.878000     0.000000
                              1.282000     0.000000
                              0.564100     0.000000
                              0.234800     0.000000
                              0.093120     1.000000
   25.1 A     1  2py       2548.000000     0.000000
                            603.700000     0.000000
                            195.600000     0.000000
                             74.150000     0.000000
                             30.940000     0.000000
                             13.690000     0.000000
                              6.229000     0.000000
                              2.878000     0.000000
                              1.282000     0.000000
                              0.564100     0.000000
                              0.234800     0.000000
                              0.093120     1.000000
   26.1 A     1  2pz       2548.000000     0.000000
                            603.700000     0.000000
                            195.600000     0.000000
                             74.150000     0.000000
                             30.940000     0.000000
                             13.690000     0.000000
                              6.229000     0.000000
                              2.878000     0.000000
                              1.282000     0.000000
                              0.564100     0.000000
                              0.234800     0.000000
                              0.093120     1.000000
   27.1 A     1  2px          0.034800     1.000000
   28.1 A     1  2py          0.034800     1.000000
   29.1 A     1  2pz          0.034800     1.000000
   30.1 A     1  3d0          0.250000     1.000000
   31.1 A     1  3d2-         0.250000     1.000000
   32.1 A     1  3d1+         0.250000     1.000000
   33.1 A     1  3d2+         0.250000     1.000000
   34.1 A     1  3d1-         0.250000     1.000000
   35.1 A     1  3d0          0.618000     1.000000
   36.1 A     1  3d2-         0.618000     1.000000
   37.1 A     1  3d1+         0.618000     1.000000
   38.1 A     1  3d2+         0.618000     1.000000
   39.1 A     1  3d1-         0.618000     1.000000
   40.1 A     1  3d0          1.529000     1.000000
   41.1 A     1  3d2-         1.529000     1.000000
   42.1 A     1  3d1+         1.529000     1.000000
   43.1 A     1  3d2+         1.529000     1.000000
   44.1 A     1  3d1-         1.529000     1.000000
   45.1 A     1  3d0          3.781000     1.000000
   46.1 A     1  3d2-         3.781000     1.000000
   47.1 A     1  3d1+         3.781000     1.000000
   48.1 A     1  3d2+         3.781000     1.000000
   49.1 A     1  3d1-         3.781000     1.000000
   50.1 A     1  3d0          0.100300     1.000000
   51.1 A     1  3d2-         0.100300     1.000000
   52.1 A     1  3d1+         0.100300     1.000000
   53.1 A     1  3d2+         0.100300     1.000000
   54.1 A     1  3d1-         0.100300     1.000000
   55.1 A     1  4f1+         0.320000     1.000000
   56.1 A     1  4f1-         0.320000     1.000000
   57.1 A     1  4f0          0.320000     1.000000
   58.1 A     1  4f3+         0.320000     1.000000
   59.1 A     1  4f2-         0.320000     1.000000
   60.1 A     1  4f3-         0.320000     1.000000
   61.1 A     1  4f2+         0.320000     1.000000
   62.1 A     1  4f1+         0.656000     1.000000
   63.1 A     1  4f1-         0.656000     1.000000
   64.1 A     1  4f0          0.656000     1.000000
   65.1 A     1  4f3+         0.656000     1.000000
   66.1 A     1  4f2-         0.656000     1.000000
   67.1 A     1  4f3-         0.656000     1.000000
   68.1 A     1  4f2+         0.656000     1.000000
   69.1 A     1  4f1+         1.345000     1.000000
   70.1 A     1  4f1-         1.345000     1.000000
   71.1 A     1  4f0          1.345000     1.000000
   72.1 A     1  4f3+         1.345000     1.000000
   73.1 A     1  4f2-         1.345000     1.000000
   74.1 A     1  4f3-         1.345000     1.000000
   75.1 A     1  4f2+         1.345000     1.000000
   76.1 A     1  4f1+         0.164000     1.000000
   77.1 A     1  4f1-         0.164000     1.000000
   78.1 A     1  4f0          0.164000     1.000000
   79.1 A     1  4f3+         0.164000     1.000000
   80.1 A     1  4f2-         0.164000     1.000000
   81.1 A     1  4f3-         0.164000     1.000000
   82.1 A     1  4f2+         0.164000     1.000000
   83.1 A     1  5g0          0.556000     1.000000
   84.1 A     1  5g2-         0.556000     1.000000
   85.1 A     1  5g1+         0.556000     1.000000
   86.1 A     1  5g4+         0.556000     1.000000
   87.1 A     1  5g1-         0.556000     1.000000
   88.1 A     1  5g2+         0.556000     1.000000
   89.1 A     1  5g4-         0.556000     1.000000
   90.1 A     1  5g3+         0.556000     1.000000
   91.1 A     1  5g3-         0.556000     1.000000
   92.1 A     1  5g0          1.302000     1.000000
   93.1 A     1  5g2-         1.302000     1.000000
   94.1 A     1  5g1+         1.302000     1.000000
   95.1 A     1  5g4+         1.302000     1.000000
   96.1 A     1  5g1-         1.302000     1.000000
   97.1 A     1  5g2+         1.302000     1.000000
   98.1 A     1  5g4-         1.302000     1.000000
   99.1 A     1  5g3+         1.302000     1.000000
  100.1 A     1  5g3-         1.302000     1.000000
  101.1 A     1  5g0          0.277000     1.000000
  102.1 A     1  5g2-         0.277000     1.000000
  103.1 A     1  5g1+         0.277000     1.000000
  104.1 A     1  5g4+         0.277000     1.000000
  105.1 A     1  5g1-         0.277000     1.000000
  106.1 A     1  5g2+         0.277000     1.000000
  107.1 A     1  5g4-         0.277000     1.000000
  108.1 A     1  5g3+         0.277000     1.000000
  109.1 A     1  5g3-         0.277000     1.000000
  110.1 A     1  6h1+         1.053000     1.000000
  111.1 A     1  6h1-         1.053000     1.000000
  112.1 A     1  6h2+         1.053000     1.000000
  113.1 A     1  6h3+         1.053000     1.000000
  114.1 A     1  6h4-         1.053000     1.000000
  115.1 A     1  6h3-         1.053000     1.000000
  116.1 A     1  6h4+         1.053000     1.000000
  117.1 A     1  6h5-         1.053000     1.000000
  118.1 A     1  6h0          1.053000     1.000000
  119.1 A     1  6h5+         1.053000     1.000000
  120.1 A     1  6h2-         1.053000     1.000000
  121.1 A     1  6h1+         0.607000     1.000000
  122.1 A     1  6h1-         0.607000     1.000000
  123.1 A     1  6h2+         0.607000     1.000000
  124.1 A     1  6h3+         0.607000     1.000000
  125.1 A     1  6h4-         0.607000     1.000000
  126.1 A     1  6h3-         0.607000     1.000000
  127.1 A     1  6h4+         0.607000     1.000000
  128.1 A     1  6h5-         0.607000     1.000000
  129.1 A     1  6h0          0.607000     1.000000
  130.1 A     1  6h5+         0.607000     1.000000
  131.1 A     1  6h2-         0.607000     1.000000
  132.1 A     2  1s     6410000.000000     0.000002   -0.000001    0.000000    0.000000    0.000000    0.000000
                                           0.000000
  133.1 A                959600.000000     0.000014   -0.000004    0.000001    0.000000    0.000000    0.000000
                                           0.000000
  134.1 A                218300.000000     0.000074   -0.000021    0.000006    0.000000    0.000000    0.000000
                                           0.000000
  135.1 A                 61810.000000     0.000314   -0.000088    0.000027    0.000000    0.000000    0.000000
                                           0.000000
  136.1 A                 20140.000000     0.001146   -0.000322    0.000097    0.000000    0.000000    0.000000
                                           0.000000
  137.1 A                  7264.000000     0.003739   -0.001053    0.000318    0.000000    0.000000    0.000000
                                           0.000000
  138.1 A                  2832.000000     0.011095   -0.003142    0.000952    0.000000    0.000000    0.000000
                                           0.000000
                           1175.000000     0.030115   -0.008664    0.002624    0.000000    0.000000    0.000000
                                           0.000000
                            512.600000     0.073914   -0.021935    0.006682    0.000000    0.000000    0.000000
                                           0.000000
                            233.000000     0.158258   -0.050258    0.015359    0.000000    0.000000    0.000000
                                           0.000000
                            109.500000     0.274753   -0.099541    0.030943    0.000000    0.000000    0.000000
                                           0.000000
                             52.860000     0.334066   -0.157647    0.050064    0.000000    0.000000    0.000000
                                           0.000000
                             25.840000     0.217589   -0.146024    0.048978    0.000000    0.000000    0.000000
                                           0.000000
                             12.170000     0.045728    0.069223   -0.026081    0.000000    0.000000    0.000000
                                           0.000000
                              6.030000    -0.000135    0.430412   -0.178426    0.000000    0.000000    0.000000
                                           0.000000
                              3.012000     0.001639    0.490802   -0.332324    0.000000    0.000000    0.000000
                                           0.000000
                              1.511000    -0.000522    0.158390   -0.132008    1.000000    0.000000    0.000000
                                           0.000000
                              0.660400     0.000181    0.008399    0.440556    0.000000    1.000000    0.000000
                                           0.000000
                              0.292600    -0.000100    0.000768    0.611891    0.000000    0.000000    1.000000
                                           0.000000
                              0.125400     0.000019    0.000227    0.193172    0.000000    0.000000    0.000000
                                           1.000000
  139.1 A     2  1s           0.047900     1.000000
  140.1 A     2  2px       2548.000000     0.000236
                            603.700000     0.002052
                            195.600000     0.011154
                             74.150000     0.043982
                             30.940000     0.129994
                             13.690000     0.272959
                              6.229000     0.383690
                              2.878000     0.291870
                              1.282000     0.070446
                              0.564100     0.001288
                              0.234800     0.001826
                              0.093120     0.000020
  141.1 A     2  2py       2548.000000     0.000236
                            603.700000     0.002052
                            195.600000     0.011154
                             74.150000     0.043982
                             30.940000     0.129994
                             13.690000     0.272959
                              6.229000     0.383690
                              2.878000     0.291870
                              1.282000     0.070446
                              0.564100     0.001288
                              0.234800     0.001826
                              0.093120     0.000020
  142.1 A     2  2pz       2548.000000     0.000236
                            603.700000     0.002052
                            195.600000     0.011154
                             74.150000     0.043982
                             30.940000     0.129994
                             13.690000     0.272959
                              6.229000     0.383690
                              2.878000     0.291870
                              1.282000     0.070446
                              0.564100     0.001288
                              0.234800     0.001826
                              0.093120     0.000020
  143.1 A     2  2px       2548.000000    -0.000064
                            603.700000    -0.000553
                            195.600000    -0.003028
                             74.150000    -0.012065
                             30.940000    -0.036635
                             13.690000    -0.079076
                              6.229000    -0.117422
                              2.878000    -0.086094
                              1.282000     0.140308
                              0.564100     0.422336
                              0.234800     0.446363
                              0.093120     0.166634
  144.1 A     2  2py       2548.000000    -0.000064
                            603.700000    -0.000553
                            195.600000    -0.003028
                             74.150000    -0.012065
                             30.940000    -0.036635
                             13.690000    -0.079076
                              6.229000    -0.117422
                              2.878000    -0.086094
                              1.282000     0.140308
                              0.564100     0.422336
                              0.234800     0.446363
                              0.093120     0.166634
  145.1 A     2  2pz       2548.000000    -0.000064
                            603.700000    -0.000553
                            195.600000    -0.003028
                             74.150000    -0.012065
                             30.940000    -0.036635
                             13.690000    -0.079076
                              6.229000    -0.117422
                              2.878000    -0.086094
                              1.282000     0.140308
                              0.564100     0.422336
                              0.234800     0.446363
                              0.093120     0.166634
  146.1 A     2  2px       2548.000000     0.000000
                            603.700000     0.000000
                            195.600000     0.000000
                             74.150000     0.000000
                             30.940000     0.000000
                             13.690000     0.000000
                              6.229000     0.000000
                              2.878000     0.000000
                              1.282000     1.000000
                              0.564100     0.000000
                              0.234800     0.000000
                              0.093120     0.000000
  147.1 A     2  2py       2548.000000     0.000000
                            603.700000     0.000000
                            195.600000     0.000000
                             74.150000     0.000000
                             30.940000     0.000000
                             13.690000     0.000000
                              6.229000     0.000000
                              2.878000     0.000000
                              1.282000     1.000000
                              0.564100     0.000000
                              0.234800     0.000000
                              0.093120     0.000000
  148.1 A     2  2pz       2548.000000     0.000000
                            603.700000     0.000000
                            195.600000     0.000000
                             74.150000     0.000000
                             30.940000     0.000000
                             13.690000     0.000000
                              6.229000     0.000000
                              2.878000     0.000000
                              1.282000     1.000000
                              0.564100     0.000000
                              0.234800     0.000000
                              0.093120     0.000000
  149.1 A     2  2px       2548.000000     0.000000
                            603.700000     0.000000
                            195.600000     0.000000
                             74.150000     0.000000
                             30.940000     0.000000
                             13.690000     0.000000
                              6.229000     0.000000
                              2.878000     0.000000
                              1.282000     0.000000
                              0.564100     1.000000
                              0.234800     0.000000
                              0.093120     0.000000
  150.1 A     2  2py       2548.000000     0.000000
                            603.700000     0.000000
                            195.600000     0.000000
                             74.150000     0.000000
                             30.940000     0.000000
                             13.690000     0.000000
                              6.229000     0.000000
                              2.878000     0.000000
                              1.282000     0.000000
                              0.564100     1.000000
                              0.234800     0.000000
                              0.093120     0.000000
  151.1 A     2  2pz       2548.000000     0.000000
                            603.700000     0.000000
                            195.600000     0.000000
                             74.150000     0.000000
                             30.940000     0.000000
                             13.690000     0.000000
                              6.229000     0.000000
                              2.878000     0.000000
                              1.282000     0.000000
                              0.564100     1.000000
                              0.234800     0.000000
                              0.093120     0.000000
  152.1 A     2  2px       2548.000000     0.000000
                            603.700000     0.000000
                            195.600000     0.000000
                             74.150000     0.000000
                             30.940000     0.000000
                             13.690000     0.000000
                              6.229000     0.000000
                              2.878000     0.000000
                              1.282000     0.000000
                              0.564100     0.000000
                              0.234800     1.000000
                              0.093120     0.000000
  153.1 A     2  2py       2548.000000     0.000000
                            603.700000     0.000000
                            195.600000     0.000000
                             74.150000     0.000000
                             30.940000     0.000000
                             13.690000     0.000000
                              6.229000     0.000000
                              2.878000     0.000000
                              1.282000     0.000000
                              0.564100     0.000000
                              0.234800     1.000000
                              0.093120     0.000000
  154.1 A     2  2pz       2548.000000     0.000000
                            603.700000     0.000000
                            195.600000     0.000000
                             74.150000     0.000000
                             30.940000     0.000000
                             13.690000     0.000000
                              6.229000     0.000000
                              2.878000     0.000000
                              1.282000     0.000000
                              0.564100     0.000000
                              0.234800     1.000000
                              0.093120     0.000000
  155.1 A     2  2px       2548.000000     0.000000
                            603.700000     0.000000
                            195.600000     0.000000
                             74.150000     0.000000
                             30.940000     0.000000
                             13.690000     0.000000
                              6.229000     0.000000
                              2.878000     0.000000
                              1.282000     0.000000
                              0.564100     0.000000
                              0.234800     0.000000
                              0.093120     1.000000
  156.1 A     2  2py       2548.000000     0.000000
                            603.700000     0.000000
                            195.600000     0.000000
                             74.150000     0.000000
                             30.940000     0.000000
                             13.690000     0.000000
                              6.229000     0.000000
                              2.878000     0.000000
                              1.282000     0.000000
                              0.564100     0.000000
                              0.234800     0.000000
                              0.093120     1.000000
  157.1 A     2  2pz       2548.000000     0.000000
                            603.700000     0.000000
                            195.600000     0.000000
                             74.150000     0.000000
                             30.940000     0.000000
                             13.690000     0.000000
                              6.229000     0.000000
                              2.878000     0.000000
                              1.282000     0.000000
                              0.564100     0.000000
                              0.234800     0.000000
                              0.093120     1.000000
  158.1 A     2  2px          0.034800     1.000000
  159.1 A     2  2py          0.034800     1.000000
  160.1 A     2  2pz          0.034800     1.000000
  161.1 A     2  3d0          0.250000     1.000000
  162.1 A     2  3d2-         0.250000     1.000000
  163.1 A     2  3d1+         0.250000     1.000000
  164.1 A     2  3d2+         0.250000     1.000000
  165.1 A     2  3d1-         0.250000     1.000000
  166.1 A     2  3d0          0.618000     1.000000
  167.1 A     2  3d2-         0.618000     1.000000
  168.1 A     2  3d1+         0.618000     1.000000
  169.1 A     2  3d2+         0.618000     1.000000
  170.1 A     2  3d1-         0.618000     1.000000
  171.1 A     2  3d0          1.529000     1.000000
  172.1 A     2  3d2-         1.529000     1.000000
  173.1 A     2  3d1+         1.529000     1.000000
  174.1 A     2  3d2+         1.529000     1.000000
  175.1 A     2  3d1-         1.529000     1.000000
  176.1 A     2  3d0          3.781000     1.000000
  177.1 A     2  3d2-         3.781000     1.000000
  178.1 A     2  3d1+         3.781000     1.000000
  179.1 A     2  3d2+         3.781000     1.000000
  180.1 A     2  3d1-         3.781000     1.000000
  181.1 A     2  3d0          0.100300     1.000000
  182.1 A     2  3d2-         0.100300     1.000000
  183.1 A     2  3d1+         0.100300     1.000000
  184.1 A     2  3d2+         0.100300     1.000000
  185.1 A     2  3d1-         0.100300     1.000000
  186.1 A     2  4f1+         0.320000     1.000000
  187.1 A     2  4f1-         0.320000     1.000000
  188.1 A     2  4f0          0.320000     1.000000
  189.1 A     2  4f3+         0.320000     1.000000
  190.1 A     2  4f2-         0.320000     1.000000
  191.1 A     2  4f3-         0.320000     1.000000
  192.1 A     2  4f2+         0.320000     1.000000
  193.1 A     2  4f1+         0.656000     1.000000
  194.1 A     2  4f1-         0.656000     1.000000
  195.1 A     2  4f0          0.656000     1.000000
  196.1 A     2  4f3+         0.656000     1.000000
  197.1 A     2  4f2-         0.656000     1.000000
  198.1 A     2  4f3-         0.656000     1.000000
  199.1 A     2  4f2+         0.656000     1.000000
  200.1 A     2  4f1+         1.345000     1.000000
  201.1 A     2  4f1-         1.345000     1.000000
  202.1 A     2  4f0          1.345000     1.000000
  203.1 A     2  4f3+         1.345000     1.000000
  204.1 A     2  4f2-         1.345000     1.000000
  205.1 A     2  4f3-         1.345000     1.000000
  206.1 A     2  4f2+         1.345000     1.000000
  207.1 A     2  4f1+         0.164000     1.000000
  208.1 A     2  4f1-         0.164000     1.000000
  209.1 A     2  4f0          0.164000     1.000000
  210.1 A     2  4f3+         0.164000     1.000000
  211.1 A     2  4f2-         0.164000     1.000000
  212.1 A     2  4f3-         0.164000     1.000000
  213.1 A     2  4f2+         0.164000     1.000000
  214.1 A     2  5g0          0.556000     1.000000
  215.1 A     2  5g2-         0.556000     1.000000
  216.1 A     2  5g1+         0.556000     1.000000
  217.1 A     2  5g4+         0.556000     1.000000
  218.1 A     2  5g1-         0.556000     1.000000
  219.1 A     2  5g2+         0.556000     1.000000
  220.1 A     2  5g4-         0.556000     1.000000
  221.1 A     2  5g3+         0.556000     1.000000
  222.1 A     2  5g3-         0.556000     1.000000
  223.1 A     2  5g0          1.302000     1.000000
  224.1 A     2  5g2-         1.302000     1.000000
  225.1 A     2  5g1+         1.302000     1.000000
  226.1 A     2  5g4+         1.302000     1.000000
  227.1 A     2  5g1-         1.302000     1.000000
  228.1 A     2  5g2+         1.302000     1.000000
  229.1 A     2  5g4-         1.302000     1.000000
  230.1 A     2  5g3+         1.302000     1.000000
  231.1 A     2  5g3-         1.302000     1.000000
  232.1 A     2  5g0          0.277000     1.000000
  233.1 A     2  5g2-         0.277000     1.000000
  234.1 A     2  5g1+         0.277000     1.000000
  235.1 A     2  5g4+         0.277000     1.000000
  236.1 A     2  5g1-         0.277000     1.000000
  237.1 A     2  5g2+         0.277000     1.000000
  238.1 A     2  5g4-         0.277000     1.000000
  239.1 A     2  5g3+         0.277000     1.000000
  240.1 A     2  5g3-         0.277000     1.000000
  241.1 A     2  6h1+         1.053000     1.000000
  242.1 A     2  6h1-         1.053000     1.000000
  243.1 A     2  6h2+         1.053000     1.000000
  244.1 A     2  6h3+         1.053000     1.000000
  245.1 A     2  6h4-         1.053000     1.000000
  246.1 A     2  6h3-         1.053000     1.000000
  247.1 A     2  6h4+         1.053000     1.000000
  248.1 A     2  6h5-         1.053000     1.000000
  249.1 A     2  6h0          1.053000     1.000000
  250.1 A     2  6h5+         1.053000     1.000000
  251.1 A     2  6h2-         1.053000     1.000000
  252.1 A     2  6h1+         0.607000     1.000000
  253.1 A     2  6h1-         0.607000     1.000000
  254.1 A     2  6h2+         0.607000     1.000000
  255.1 A     2  6h3+         0.607000     1.000000
  256.1 A     2  6h4-         0.607000     1.000000
  257.1 A     2  6h3-         0.607000     1.000000
  258.1 A     2  6h4+         0.607000     1.000000
  259.1 A     2  6h5-         0.607000     1.000000
  260.1 A     2  6h0          0.607000     1.000000
  261.1 A     2  6h5+         0.607000     1.000000
  262.1 A     2  6h2-         0.607000     1.000000

 NUCLEAR CHARGE:                   34
 NUMBER OF PRIMITIVE AOS:         434
 NUMBER OF SYMMETRY AOS:          324
 NUMBER OF CONTRACTIONS:          262   (  262A   )
 NUMBER OF INNER CORE ORBITALS:     2   (    2A   )
 NUMBER OF OUTER CORE ORBITALS:     8   (    8A   )
 NUMBER OF VALENCE ORBITALS:        8   (    8A   )


 NUCLEAR REPULSION ENERGY   76.93154281


 Library entry CL     S aug-cc-pV5Z-JKFI     selected for JK group  1
 Library entry CL     P aug-cc-pV5Z-JKFI     selected for JK group  1
 Library entry CL     D aug-cc-pV5Z-JKFI     selected for JK group  1
 Library entry CL     F aug-cc-pV5Z-JKFI     selected for JK group  1
 Library entry CL     G aug-cc-pV5Z-JKFI     selected for JK group  1
 Library entry CL     H aug-cc-pV5Z-JKFI     selected for JK group  1
 Library entry CL     I aug-cc-pV5Z-JKFI     selected for JK group  1
 Basis set:    JK
 Basis size:   460
 Sphericals:   T
 =======================================
 Centre l       exponent    contractions
 =======================================

    1   s    7082.797058      1.000000
    1   s    2109.309508      1.000000
    1   s     768.412819      1.000000
    1   s     284.792554      1.000000
    1   s     116.553317      1.000000
    1   s      46.394821      1.000000
    1   s      21.956303      1.000000
    1   s       9.993027      1.000000
    1   s       4.719946      1.000000
    1   s       2.657340      1.000000
    1   s       1.081348      1.000000
    1   s       0.531547      1.000000
    1   s       0.233670      1.000000
    1   s       0.102723      1.000000

    1   p     973.735285      1.000000
    1   p     278.991093      1.000000
    1   p     105.886445      1.000000
    1   p      45.231847      1.000000
    1   p      20.289166      1.000000
    1   p       9.582938      1.000000
    1   p       4.464168      1.000000
    1   p       2.362561      1.000000
    1   p       1.149196      1.000000
    1   p       0.603102      1.000000
    1   p       0.305909      1.000000
    1   p       0.155165      1.000000

    1   d     204.380301      1.000000
    1   d      63.693893      1.000000
    1   d      25.726669      1.000000
    1   d      11.602467      1.000000
    1   d       5.457454      1.000000
    1   d       2.883840      1.000000
    1   d       1.339402      1.000000
    1   d       0.616492      1.000000
    1   d       0.274701      1.000000
    1   d       0.122404      1.000000

    1   f       3.890260      1.000000
    1   f       1.638260      1.000000
    1   f       0.727260      1.000000
    1   f       0.359260      1.000000
    1   f       0.177471      1.000000

    1   g       1.454260      1.000000
    1   g       0.765260      1.000000
    1   g       0.429260      1.000000
    1   g       0.240786      1.000000

    1   h       1.411260      1.000000
    1   h       0.665260      1.000000
    1   h       0.313600      1.000000

    1   i       1.162260      1.000000
    1   i       0.464904      1.000000

    2   s    7082.797058      1.000000
    2   s    2109.309508      1.000000
    2   s     768.412819      1.000000
    2   s     284.792554      1.000000
    2   s     116.553317      1.000000
    2   s      46.394821      1.000000
    2   s      21.956303      1.000000
    2   s       9.993027      1.000000
    2   s       4.719946      1.000000
    2   s       2.657340      1.000000
    2   s       1.081348      1.000000
    2   s       0.531547      1.000000
    2   s       0.233670      1.000000
    2   s       0.102723      1.000000

    2   p     973.735285      1.000000
    2   p     278.991093      1.000000
    2   p     105.886445      1.000000
    2   p      45.231847      1.000000
    2   p      20.289166      1.000000
    2   p       9.582938      1.000000
    2   p       4.464168      1.000000
    2   p       2.362561      1.000000
    2   p       1.149196      1.000000
    2   p       0.603102      1.000000
    2   p       0.305909      1.000000
    2   p       0.155165      1.000000

    2   d     204.380301      1.000000
    2   d      63.693893      1.000000
    2   d      25.726669      1.000000
    2   d      11.602467      1.000000
    2   d       5.457454      1.000000
    2   d       2.883840      1.000000
    2   d       1.339402      1.000000
    2   d       0.616492      1.000000
    2   d       0.274701      1.000000
    2   d       0.122404      1.000000

    2   f       3.890260      1.000000
    2   f       1.638260      1.000000
    2   f       0.727260      1.000000
    2   f       0.359260      1.000000
    2   f       0.177471      1.000000

    2   g       1.454260      1.000000
    2   g       0.765260      1.000000
    2   g       0.429260      1.000000
    2   g       0.240786      1.000000

    2   h       1.411260      1.000000
    2   h       0.665260      1.000000
    2   h       0.313600      1.000000

    2   i       1.162260      1.000000
    2   i       0.464904      1.000000
 =======================================


 **********************************************************************************************************************************

 EXTRA SYMMETRY OF AOS IN SYMMETRY 1:   1 1 1 1 1 1 1 1 2 3   1 2 3 1 2 3 1 2 3 1   2 3 1 2 3 1 2 3 1 1   4 2 5 3 1 4 2 5 3 1
                                        4 2 5 3 1 4 2 5 3 1   4 2 5 3 2 3 1 6 4 7   5 2 3 1 6 4 7 5 2 3   1 6 4 7 5 2 3 1 6 4
                                        7 5 1 4 2 8 3 5 9 6   7 1 4 2 8 3 5 9 6 7   1 4 2 8 3 5 9 6 7 2   3 5 6 9 7 810 111 4
                                        2 3 5 6 9 7 810 111   4 1 1 1 1 1 1 1 1 2   3 1 2 3 1 2 3 1 2 3   1 2 3 1 2 3 1 2 3 1
                                        1 4 2 5 3 1 4 2 5 3   1 4 2 5 3 1 4 2 5 3   1 4 2 5 3 2 3 1 6 4   7 5 2 3 1 6 4 7 5 2
                                        3 1 6 4 7 5 2 3 1 6   4 7 5 1 4 2 8 3 5 9   6 7 1 4 2 8 3 5 9 6   7 1 4 2 8 3 5 9 6 7
                                        2 3 5 6 9 7 810 111   4 2 3 5 6 9 7 810 1  11 4

 Eigenvalues of metric

         1 0.620E-05 0.640E-05 0.650E-05 0.650E-05 0.657E-05 0.657E-05 0.224E-04 0.269E-04


 OPERATOR DM      FOR CENTER  0  COORDINATES:    0.000000    0.000000    0.000000


 **********************************************************************************************************************************
 DATASETS  * FILE   NREC   LENGTH (MB)   RECORD NAMES
              1      18       31.05       500      610      700      900      950      970     1000      129      960     1100   
                                          VAR    BASINP    GEOM    SYMINP    ZMAT    AOBASIS   BASIS     P2S    ABASIS      S 
                                         1400     1410     1200     1210     1080     1600     1650     1700   
                                           T        V       H0       H01     AOSYM     SMH    MOLCAS    OPER   

 PROGRAMS   *        TOTAL       INT
 CPU TIMES  *         0.42      0.29
 REAL TIME  *         1.06 SEC
 DISK USED  *        31.42 MB (local),      502.64 MB (total)
 GA USED    *         0.00 MB       (max)       0.00 MB       (current)
 **********************************************************************************************************************************


 Program * Restricted Hartree-Fock

 Coulomb and exchange fitting
 Thresholds for fitting:       THRAO_COUL= 1.0D-15    THRAO_EXCH= 1.0D-13    THRMO= 1.0D-12    THRPROD= 1.0D-12    THRASM= 1.0D-12
                               THR2HLF=    1.0D-12

 Basis set JK loaded. Number of basis functions: 460

 Orbital guess generated from atomic densities. Full valence occupancy:   18
 Using density fitting in orbital guess


 Initial occupancy:  17

 NELEC=   34   SYM=1   MS2= 0   THRE=1.0D-11   THRD=1.0D-06   THRG=1.0D-06  HFMA2=F  DIIS_START=2   DIIS_MAX=10   DIIS_INCORE=F

 Level shifts:    0.00 (CLOSED)    0.00 (OPEN)    0.30 (GAP_MIN)

 ITER           ETOT              DE          GRAD        DDIFF     DIIS  NEXP   TIME(IT)  TIME(TOT)  DIAG
   1     -918.99102588    -918.99102588     0.00D+00     0.44D-01     0     0       0.06      0.13    start
   2     -919.00674126      -0.01571538     0.22D-02     0.23D-02     1     0       0.06      0.19    diag
   3     -919.00982889      -0.00308763     0.11D-02     0.85D-03     2     0       0.07      0.26    diag
   4     -919.01006968      -0.00024079     0.16D-03     0.20D-03     3     0       0.06      0.32    diag
   5     -919.01008756      -0.00001788     0.40D-04     0.32D-04     4     0       0.06      0.38    diag
   6     -919.01008784      -0.00000028     0.56D-05     0.61D-05     5     0       0.07      0.45    diag
   7     -919.01008784      -0.00000000     0.97D-06     0.22D-05     6     0       0.06      0.51    diag
   8     -919.01008784      -0.00000000     0.20D-06     0.32D-06     7     0       0.06      0.57    fixocc
   9     -919.01008784      -0.00000000     0.32D-07     0.41D-07     8     0       0.07      0.64    diag
  10     -919.01008784      -0.00000000     0.41D-08     0.56D-08     0     0       0.06      0.70    diag/orth

 Final occupancy:  17

 !RHF STATE 1.1 Energy               -919.010087843652
  RHF One-electron energy           -1423.072993003526
  RHF Two-electron energy             427.131362350394
  RHF Kinetic energy                  918.975585780790
  RHF Nuclear energy                   76.931542809481
  RHF Virial quotient                  -1.000037544047

 !RHF STATE 1.1 Dipole moment          -0.00000000    -0.00000000    -0.00000000
 Dipole moment /Debye                  -0.00000000    -0.00000000    -0.00000000

 ELECTRON ORBITALS
 =================

  Orbital  Occupation    Energy    Cen Mu Typ  Coefficients
    1.1     2.00000  -104.89799     1  1  s    0.70710    2  1  s    0.70710
    2.1     2.00000  -104.89799     1  1  s    0.70709    2  1  s   -0.70709
    3.1     2.00000   -10.61983     1  2  s    0.70720    2  2  s    0.70720
    4.1     2.00000   -10.61966     1  2  s    0.70718    2  2  s   -0.70718
    5.1     2.00000    -8.08692     1  1  pz   0.69440    2  1  pz  -0.69440
    6.1     2.00000    -8.08665     1  1  pz   0.69454    2  1  pz   0.69454
    7.1     2.00000    -8.08423     1  1  py   0.71465    2  1  py   0.71465
    8.1     2.00000    -8.08423     1  1  px   0.71465    2  1  px   0.71465
    9.1     2.00000    -8.08422     1  1  py   0.71485    2  1  py  -0.71485
   10.1     2.00000    -8.08422     1  1  px   0.71485    2  1  px  -0.71485
   11.1     2.00000    -1.21879     1  3  s    0.64292    2  3  s    0.64292
   12.1     2.00000    -1.01467     1  3  s    0.72192    2  3  s   -0.72192
   13.1     2.00000    -0.59800     1  2  pz   0.65653    2  2  pz  -0.65653
   14.1     2.00000    -0.57013     1  2  px   0.67032    2  2  px   0.67032
   15.1     2.00000    -0.57013     1  2  py   0.67032    2  2  py   0.67032
   16.1     2.00000    -0.44374     1  2  px   0.73851    2  2  px  -0.73851
   17.1     2.00000    -0.44374     1  2  py   0.73851    2  2  py  -0.73851


 HOMO     17.1    -0.443744 =     -12.0749eV
 LUMO     18.1     0.023431 =       0.6376eV
 LUMO-HOMO         0.467174 =      12.7125eV

 Orbitals saved in record  2100.2


 **********************************************************************************************************************************
 DATASETS  * FILE   NREC   LENGTH (MB)   RECORD NAMES
              1      18       31.05       500      610      700      900      950      970     1000      129      960     1100   
                                          VAR    BASINP    GEOM    SYMINP    ZMAT    AOBASIS   BASIS     P2S    ABASIS      S 
                                         1400     1410     1200     1210     1080     1600     1650     1700   
                                           T        V       H0       H01     AOSYM     SMH    MOLCAS    OPER   

              2       4        1.47       700     1000      520     2100   
                                         GEOM     BASIS   MCVARS     RHF  

 PROGRAMS   *        TOTAL     DF-HF       INT
 CPU TIMES  *         1.13      0.71      0.29
 REAL TIME  *         2.03 SEC
 DISK USED  *        37.07 MB (local),      593.12 MB (total)
 SF USED    *        16.55 MB
 GA USED    *         0.00 MB       (max)       0.00 MB       (current)
 **********************************************************************************************************************************

 DF-HF/aug-cc-pV5Z energy=   -919.010087843652

           DF-HF
   -919.01008784
 **********************************************************************************************************************************
 Molpro calculation terminated
