
 Working directory              : /scratch/emmanous/3821508.pbs01/molpro.u8SgTi1Zw4/
 Global scratch directory       : /scratch/emmanous/3821508.pbs01/molpro.u8SgTi1Zw4/
 Wavefunction directory         : /home/emmanous/wfu/
 Main file repository           : /scratch/emmanous/3821508.pbs01/molpro.u8SgTi1Zw4/

 id        : wis

 Nodes     nprocs
 cff051      16
 GA implementation: MPI file
 GA implementation (serial work in mppx): MPI file

 Using DEFAULT tuning parameter for ncache   :   16384
 Using DEFAULT tuning parameter for mflopdgm :   10000
 Using DEFAULT tuning parameter for mflopdgv :    4000
 Using DEFAULT tuning parameter for mflopmxm :    5000
 Using DEFAULT tuning parameter for mflopmxv :    4000
 Using DEFAULT tuning parameter for mindgm   :       1
 Using DEFAULT tuning parameter for mindgc   :       4
 Using DEFAULT tuning parameter for mindgf   :    5000
 Using DEFAULT tuning parameter for mindgl   :       4
 Using DEFAULT tuning parameter for mindgr   :       1
 Using DEFAULT tuning parameter for mindgv   :      20
 Using DEFAULT tuning parameter for mincuda  :     500
 Using DEFAULT tuning parameter for mxmblk   :      64
 Using DEFAULT tuning parameter for mxmbln   :      64
 Using DEFAULT tuning parameter for nroll    :       2
 Using custom tuning parameter for ngpus     :       0
 Using customized tuning parameters: mindgm=1; mindgv=20; mindgc=4; mindgr=1; noblas=0; minvec=7

 Fortran compiler: integer size=8, double size=8, logical size=8
 default implementation of scratch files=sf  


 Variables initialized (1025), CPU time= 0.01 sec
 gprint,basis
 gthresh,energy=1d-9
 ANGSTROM
 geomtyp=xyz
 charge=0
 multiplicity=1
 nosym
 geom={
 Cl ,0.0000 ,0.0000 ,0.0000
 Cl ,0.0000 ,0.0000 ,1.9879
 }
 
 basis={
 default,aug-cc-pVDZ
 set,jk
 default,aug-cc-pVDZ/JKFIT
 }
 {df-hf,df_basis=jk
 wf,,,$multiplicity-1
 print,orbitals
 maxit,300}
 Commands initialized (840), CPU time= 0.01 sec, 684 directives.
 Default parameters read. Elapsed time= 0.07 sec

 Using DEFAULT tuning parameter for mpplat   :       3
 Using DEFAULT tuning parameter for mppspeed :    1600
 Checking input...
 Passed
1


                                         ***  PROGRAM SYSTEM MOLPRO  ***
                                       Copyright, TTI GmbH Stuttgart, 2015
                                    Version 2022.3 linked Wed Nov 30 13:40:34 2022


 **********************************************************************************************************************************
 LABEL *                                                                                 
  64 bit mpp version                                                                     DATE: 13-Jul-23          TIME: 09:16:02  
 **********************************************************************************************************************************

 SHA1:             e31ec9a5ea85254ab76f59d122cbdd51c71cf98b
 **********************************************************************************************************************************

 Memory per process:      1000 MW
 Total memory per node:  16000 MW

 GA preallocation disabled
 GA check disabled

 Variable memory set to 1000.0 MW



 THRESHOLDS:

 ZERO    =  1.00D-12  ONEINT  =  1.00D-12  TWOINT  =  1.00D-11  PREFAC  =  1.00D-14  XXXXXX  =  1.00D-09  EORDER  =  1.00D-04
 ENERGY  =  1.00D-09  ETEST   =  0.00D+00  EDENS   =  0.00D+00  THRDEDEF=  1.00D-06  GRADIENT=  1.00D-05  STEP    =  1.00D-03
 ORBITAL =  1.00D-05  CIVEC   =  1.00D-05  COEFF   =  1.00D-04  PRINTCI =  5.00D-02  PUNCHCI =  9.90D+01  OPTGRAD =  3.00D-04
 OPTENERG=  1.00D-06  OPTSTEP =  3.00D-04  THRGRAD =  1.00D-10  COMPRESS=  1.00D-11  VARMIN  =  1.00D-07  VARMAX  =  1.00D-03
 THRDOUB =  0.00D+00  THRDIV  =  1.00D-05  THRRED  =  1.00D-07  THRPSP  =  1.00D+00  THRDC   =  1.00D-10  THRCS   =  1.00D-10
 THRNRM  =  1.00D-08  THREQ   =  0.00D+00  THRDE   =  1.00D+00  THRREF  =  1.00D-05  SPARFAC =  1.00D+00  THRDLP  =  1.00D-07
 THRDIA  =  1.00D-10  THRDLS  =  1.00D-07  THRGPS  =  0.00D+00  THRKEX  =  0.00D+00  THRDIS  =  2.00D-01  THRVAR  =  1.00D-10
 THRLOC  =  1.00D-06  THRGAP  =  1.00D-06  THRLOCT = -1.00D+00  THRGAPT = -1.00D+00  THRORB  =  1.00D-06  THRMLTP =  0.00D+00
 THRCPQCI=  1.00D-10  KEXTA   =  0.00D+00  THRCOARS=  0.00D+00  SYMTOL  =  1.00D-06  GRADTOL =  1.00D-06  THROVL  =  1.00D-08
 THRORTH =  1.00D-08  THRDLOVL= -1.00D+00  GRID    =  1.00D-06  GRIDMAX =  1.00D-03  DTMAX   =  0.00D+00  THROCCDE=  1.00D-01
 THROCCDE=  1.00D-01  THRPRINT=  2.50D-01

 SETTING GEOMTYP        =    XYZ
 SETTING CHARGE         =      0.0000000D+00                                  
 SETTING MULTIPLICITY   =         1.00000000                                  
 ZSYMEL=NOSYM
 ZUNIT=ANG

 SETTING BASIS          =    AUG-CC-PVDZ


 Recomputing integrals since basis changed


 Using spherical harmonics

 Library entry CL     S aug-cc-pVDZ          selected for orbital group  1
 Library entry CL     P aug-cc-pVDZ          selected for orbital group  1
 Library entry CL     D aug-cc-pVDZ          selected for orbital group  1


 PROGRAM * SEWARD (Integral evaluation for generally contracted gaussian basis sets)     Author: Roland Lindh, 1990

 Geometry written to block  1 of record 700


 Point group  C1  



 ATOMIC COORDINATES

 NR  ATOM    CHARGE       X              Y              Z

   1  CL     17.00    0.000000000    0.000000000    0.000000000
   2  CL     17.00    0.000000000    0.000000000    3.756586563

 Bond lengths in Bohr (Angstrom)

 1-2  3.756586563
     ( 1.987900000)


 BASIS DATA

   Nr Sym  Nuc  Type         Exponents   Contraction coefficients

    1.1 A     1  1s      127900.000000     0.000241   -0.000068    0.000020    0.000000
    2.1 A                 19170.000000     0.001871   -0.000522    0.000158    0.000000
    3.1 A                  4363.000000     0.009708   -0.002765    0.000834    0.000000
    4.1 A                  1236.000000     0.039315   -0.011154    0.003399    0.000000
                            403.600000     0.125932   -0.038592    0.011674    0.000000
                            145.700000     0.299341   -0.099485    0.030962    0.000000
                             56.810000     0.421886   -0.201392    0.062953    0.000000
                             23.230000     0.237201   -0.130313    0.046026    0.000000
                              6.644000     0.019153    0.509443   -0.219312    0.000000
                              2.575000    -0.003348    0.610725   -0.408773    0.000000
                              0.537100     0.000930    0.042155    0.638465    0.000000
                              0.193800    -0.000396   -0.009234    0.562362    1.000000
    5.1 A     1  1s           0.060800     1.000000
    6.1 A     1  2px        417.600000     0.005260
                             98.330000     0.039833
                             31.040000     0.164655
                             11.190000     0.387322
                              4.249000     0.457072
                              1.624000     0.151636
                              0.532200     0.001816
                              0.162000     0.001883
    7.1 A     1  2py        417.600000     0.005260
                             98.330000     0.039833
                             31.040000     0.164655
                             11.190000     0.387322
                              4.249000     0.457072
                              1.624000     0.151636
                              0.532200     0.001816
                              0.162000     0.001883
    8.1 A     1  2pz        417.600000     0.005260
                             98.330000     0.039833
                             31.040000     0.164655
                             11.190000     0.387322
                              4.249000     0.457072
                              1.624000     0.151636
                              0.532200     0.001816
                              0.162000     0.001883
    9.1 A     1  2px        417.600000    -0.001436
                             98.330000    -0.010780
                             31.040000    -0.047008
                             11.190000    -0.111030
                              4.249000    -0.153275
                              1.624000     0.089461
                              0.532200     0.579444
                              0.162000     0.483272
   10.1 A     1  2py        417.600000    -0.001436
                             98.330000    -0.010780
                             31.040000    -0.047008
                             11.190000    -0.111030
                              4.249000    -0.153275
                              1.624000     0.089461
                              0.532200     0.579444
                              0.162000     0.483272
   11.1 A     1  2pz        417.600000    -0.001436
                             98.330000    -0.010780
                             31.040000    -0.047008
                             11.190000    -0.111030
                              4.249000    -0.153275
                              1.624000     0.089461
                              0.532200     0.579444
                              0.162000     0.483272
   12.1 A     1  2px        417.600000     0.000000
                             98.330000     0.000000
                             31.040000     0.000000
                             11.190000     0.000000
                              4.249000     0.000000
                              1.624000     0.000000
                              0.532200     0.000000
                              0.162000     1.000000
   13.1 A     1  2py        417.600000     0.000000
                             98.330000     0.000000
                             31.040000     0.000000
                             11.190000     0.000000
                              4.249000     0.000000
                              1.624000     0.000000
                              0.532200     0.000000
                              0.162000     1.000000
   14.1 A     1  2pz        417.600000     0.000000
                             98.330000     0.000000
                             31.040000     0.000000
                             11.190000     0.000000
                              4.249000     0.000000
                              1.624000     0.000000
                              0.532200     0.000000
                              0.162000     1.000000
   15.1 A     1  2px          0.046600     1.000000
   16.1 A     1  2py          0.046600     1.000000
   17.1 A     1  2pz          0.046600     1.000000
   18.1 A     1  3d0          0.600000     1.000000
   19.1 A     1  3d2-         0.600000     1.000000
   20.1 A     1  3d1+         0.600000     1.000000
   21.1 A     1  3d2+         0.600000     1.000000
   22.1 A     1  3d1-         0.600000     1.000000
   23.1 A     1  3d0          0.196000     1.000000
   24.1 A     1  3d2-         0.196000     1.000000
   25.1 A     1  3d1+         0.196000     1.000000
   26.1 A     1  3d2+         0.196000     1.000000
   27.1 A     1  3d1-         0.196000     1.000000
   28.1 A     2  1s      127900.000000     0.000241   -0.000068    0.000020    0.000000
   29.1 A                 19170.000000     0.001871   -0.000522    0.000158    0.000000
   30.1 A                  4363.000000     0.009708   -0.002765    0.000834    0.000000
   31.1 A                  1236.000000     0.039315   -0.011154    0.003399    0.000000
                            403.600000     0.125932   -0.038592    0.011674    0.000000
                            145.700000     0.299341   -0.099485    0.030962    0.000000
                             56.810000     0.421886   -0.201392    0.062953    0.000000
                             23.230000     0.237201   -0.130313    0.046026    0.000000
                              6.644000     0.019153    0.509443   -0.219312    0.000000
                              2.575000    -0.003348    0.610725   -0.408773    0.000000
                              0.537100     0.000930    0.042155    0.638465    0.000000
                              0.193800    -0.000396   -0.009234    0.562362    1.000000
   32.1 A     2  1s           0.060800     1.000000
   33.1 A     2  2px        417.600000     0.005260
                             98.330000     0.039833
                             31.040000     0.164655
                             11.190000     0.387322
                              4.249000     0.457072
                              1.624000     0.151636
                              0.532200     0.001816
                              0.162000     0.001883
   34.1 A     2  2py        417.600000     0.005260
                             98.330000     0.039833
                             31.040000     0.164655
                             11.190000     0.387322
                              4.249000     0.457072
                              1.624000     0.151636
                              0.532200     0.001816
                              0.162000     0.001883
   35.1 A     2  2pz        417.600000     0.005260
                             98.330000     0.039833
                             31.040000     0.164655
                             11.190000     0.387322
                              4.249000     0.457072
                              1.624000     0.151636
                              0.532200     0.001816
                              0.162000     0.001883
   36.1 A     2  2px        417.600000    -0.001436
                             98.330000    -0.010780
                             31.040000    -0.047008
                             11.190000    -0.111030
                              4.249000    -0.153275
                              1.624000     0.089461
                              0.532200     0.579444
                              0.162000     0.483272
   37.1 A     2  2py        417.600000    -0.001436
                             98.330000    -0.010780
                             31.040000    -0.047008
                             11.190000    -0.111030
                              4.249000    -0.153275
                              1.624000     0.089461
                              0.532200     0.579444
                              0.162000     0.483272
   38.1 A     2  2pz        417.600000    -0.001436
                             98.330000    -0.010780
                             31.040000    -0.047008
                             11.190000    -0.111030
                              4.249000    -0.153275
                              1.624000     0.089461
                              0.532200     0.579444
                              0.162000     0.483272
   39.1 A     2  2px        417.600000     0.000000
                             98.330000     0.000000
                             31.040000     0.000000
                             11.190000     0.000000
                              4.249000     0.000000
                              1.624000     0.000000
                              0.532200     0.000000
                              0.162000     1.000000
   40.1 A     2  2py        417.600000     0.000000
                             98.330000     0.000000
                             31.040000     0.000000
                             11.190000     0.000000
                              4.249000     0.000000
                              1.624000     0.000000
                              0.532200     0.000000
                              0.162000     1.000000
   41.1 A     2  2pz        417.600000     0.000000
                             98.330000     0.000000
                             31.040000     0.000000
                             11.190000     0.000000
                              4.249000     0.000000
                              1.624000     0.000000
                              0.532200     0.000000
                              0.162000     1.000000
   42.1 A     2  2px          0.046600     1.000000
   43.1 A     2  2py          0.046600     1.000000
   44.1 A     2  2pz          0.046600     1.000000
   45.1 A     2  3d0          0.600000     1.000000
   46.1 A     2  3d2-         0.600000     1.000000
   47.1 A     2  3d1+         0.600000     1.000000
   48.1 A     2  3d2+         0.600000     1.000000
   49.1 A     2  3d1-         0.600000     1.000000
   50.1 A     2  3d0          0.196000     1.000000
   51.1 A     2  3d2-         0.196000     1.000000
   52.1 A     2  3d1+         0.196000     1.000000
   53.1 A     2  3d2+         0.196000     1.000000
   54.1 A     2  3d1-         0.196000     1.000000

 NUCLEAR CHARGE:                   34
 NUMBER OF PRIMITIVE AOS:         104
 NUMBER OF SYMMETRY AOS:          100
 NUMBER OF CONTRACTIONS:           54   (   54A   )
 NUMBER OF INNER CORE ORBITALS:     2   (    2A   )
 NUMBER OF OUTER CORE ORBITALS:     8   (    8A   )
 NUMBER OF VALENCE ORBITALS:        8   (    8A   )


 NUCLEAR REPULSION ENERGY   76.93154281


 Library entry CL     S aug-cc-pVDZ-JKFI     selected for JK group  1
 Library entry CL     P aug-cc-pVDZ-JKFI     selected for JK group  1
 Library entry CL     D aug-cc-pVDZ-JKFI     selected for JK group  1
 Library entry CL     F aug-cc-pVDZ-JKFI     selected for JK group  1
 Basis set:    JK
 Basis size:   256
 Sphericals:   T
 =======================================
 Centre l       exponent    contractions
 =======================================

    1   s    7082.797058      1.000000
    1   s    2109.309508      1.000000
    1   s     768.412819      1.000000
    1   s     284.792554      1.000000
    1   s     116.553317      1.000000
    1   s      46.394821      1.000000
    1   s      21.956303      1.000000
    1   s       9.993027      1.000000
    1   s       4.719946      1.000000
    1   s       2.657340      1.000000
    1   s       1.081348      1.000000
    1   s       0.531547      1.000000
    1   s       0.233670      1.000000
    1   s       0.102723      1.000000

    1   p     973.735285      1.000000
    1   p     278.991093      1.000000
    1   p     105.886445      1.000000
    1   p      45.231847      1.000000
    1   p      20.289166      1.000000
    1   p       9.582938      1.000000
    1   p       4.464168      1.000000
    1   p       2.362561      1.000000
    1   p       1.149196      1.000000
    1   p       0.603102      1.000000
    1   p       0.305909      1.000000
    1   p       0.155165      1.000000

    1   d     204.380301      1.000000
    1   d      63.693893      1.000000
    1   d      25.726669      1.000000
    1   d      11.602467      1.000000
    1   d       5.457454      1.000000
    1   d       2.883840      1.000000
    1   d       1.339402      1.000000
    1   d       0.616492      1.000000
    1   d       0.274701      1.000000
    1   d       0.122404      1.000000

    1   f       4.204066      1.000000
    1   f       1.201162      1.000000
    1   f       0.499162      1.000000
    1   f       0.207435      1.000000

    2   s    7082.797058      1.000000
    2   s    2109.309508      1.000000
    2   s     768.412819      1.000000
    2   s     284.792554      1.000000
    2   s     116.553317      1.000000
    2   s      46.394821      1.000000
    2   s      21.956303      1.000000
    2   s       9.993027      1.000000
    2   s       4.719946      1.000000
    2   s       2.657340      1.000000
    2   s       1.081348      1.000000
    2   s       0.531547      1.000000
    2   s       0.233670      1.000000
    2   s       0.102723      1.000000

    2   p     973.735285      1.000000
    2   p     278.991093      1.000000
    2   p     105.886445      1.000000
    2   p      45.231847      1.000000
    2   p      20.289166      1.000000
    2   p       9.582938      1.000000
    2   p       4.464168      1.000000
    2   p       2.362561      1.000000
    2   p       1.149196      1.000000
    2   p       0.603102      1.000000
    2   p       0.305909      1.000000
    2   p       0.155165      1.000000

    2   d     204.380301      1.000000
    2   d      63.693893      1.000000
    2   d      25.726669      1.000000
    2   d      11.602467      1.000000
    2   d       5.457454      1.000000
    2   d       2.883840      1.000000
    2   d       1.339402      1.000000
    2   d       0.616492      1.000000
    2   d       0.274701      1.000000
    2   d       0.122404      1.000000

    2   f       4.204066      1.000000
    2   f       1.201162      1.000000
    2   f       0.499162      1.000000
    2   f       0.207435      1.000000
 =======================================


 **********************************************************************************************************************************

 EXTRA SYMMETRY OF AOS IN SYMMETRY 1:   1 1 1 1 1 2 3 1 2 3   1 2 3 1 2 3 1 1 4 2   5 3 1 4 2 5 3 1 1 1   1 1 2 3 1 2 3 1 2 3
                                        1 2 3 1 1 4 2 5 3 1   4 2 5 3

 Eigenvalues of metric

         1 0.249E-02 0.557E-02 0.184E-01 0.586E-01 0.603E-01 0.603E-01 0.715E-01 0.963E-01


 OPERATOR DM      FOR CENTER  0  COORDINATES:    0.000000    0.000000    0.000000


 **********************************************************************************************************************************
 DATASETS  * FILE   NREC   LENGTH (MB)   RECORD NAMES
              1      18       28.69       500      610      700      900      950      970     1000      129      960     1100   
                                          VAR    BASINP    GEOM    SYMINP    ZMAT    AOBASIS   BASIS     P2S    ABASIS      S 
                                         1400     1410     1200     1210     1080     1600     1650     1700   
                                           T        V       H0       H01     AOSYM     SMH    MOLCAS    OPER   

 PROGRAMS   *        TOTAL       INT
 CPU TIMES  *         0.33      0.21
 REAL TIME  *         0.99 SEC
 DISK USED  *        28.97 MB (local),      463.52 MB (total)
 GA USED    *         0.00 MB       (max)       0.00 MB       (current)
 **********************************************************************************************************************************


 Program * Restricted Hartree-Fock

 Coulomb and exchange fitting
 Thresholds for fitting:       THRAO_COUL= 1.0D-15    THRAO_EXCH= 1.0D-13    THRMO= 1.0D-12    THRPROD= 1.0D-12    THRASM= 1.0D-12
                               THR2HLF=    1.0D-12

 Basis set JK loaded. Number of basis functions: 256

 Orbital guess generated from atomic densities. Full valence occupancy:   18
 Using density fitting in orbital guess


 Initial occupancy:  17

 NELEC=   34   SYM=1   MS2= 0   THRE=1.0D-11   THRD=1.0D-06   THRG=1.0D-06  HFMA2=F  DIIS_START=2   DIIS_MAX=10   DIIS_INCORE=F

 Level shifts:    0.00 (CLOSED)    0.00 (OPEN)    0.30 (GAP_MIN)

 ITER           ETOT              DE          GRAD        DDIFF     DIIS  NEXP   TIME(IT)  TIME(TOT)  DIAG
   1     -918.94916808    -918.94916808     0.00D+00     0.21D+00     0     0       0.01      0.02    start
   2     -918.96337881      -0.01421073     0.46D-02     0.92D-02     1     0       0.00      0.02    diag
   3     -918.96555828      -0.00217948     0.18D-02     0.26D-02     2     0       0.01      0.03    diag
   4     -918.96569874      -0.00014046     0.30D-03     0.41D-03     3     0       0.01      0.04    diag
   5     -918.96570193      -0.00000319     0.43D-04     0.99D-04     4     0       0.00      0.04    diag
   6     -918.96570195      -0.00000002     0.42D-05     0.13D-04     5     0       0.01      0.05    diag
   7     -918.96570195      -0.00000000     0.83D-06     0.24D-05     6     0       0.01      0.06    diag
   8     -918.96570195      -0.00000000     0.90D-07     0.26D-06     7     0       0.00      0.06    fixocc
   9     -918.96570195       0.00000000     0.13D-07     0.43D-07     8     0       0.01      0.07    diag
  10     -918.96570195      -0.00000000     0.13D-08     0.34D-08     0     0       0.01      0.08    diag/orth

 Final occupancy:  17

 !RHF STATE 1.1 Energy               -918.965701953990
  RHF One-electron energy           -1422.899247295068
  RHF Two-electron energy             427.002002531597
  RHF Kinetic energy                  919.051780572731
  RHF Nuclear energy                   76.931542809481
  RHF Virial quotient                  -0.999906339751

 !RHF STATE 1.1 Dipole moment           0.00000000     0.00000000     0.00000000
 Dipole moment /Debye                   0.00000000     0.00000000     0.00000000

 ELECTRON ORBITALS
 =================

  Orbital  Occupation    Energy    Cen Mu Typ  Coefficients
    1.1     2.00000  -104.89858     1  1  s    0.70712    2  1  s    0.70712
    2.1     2.00000  -104.89858     1  1  s    0.70715    2  1  s   -0.70715
    3.1     2.00000   -10.62262     1  2  s    0.70876    2  2  s    0.70876
    4.1     2.00000   -10.62251     1  2  s    0.71188    2  2  s   -0.71188
    5.1     2.00000    -8.09086     1  1  pz   0.70723    2  1  pz  -0.70723
    6.1     2.00000    -8.09062     1  1  pz   0.70726    2  1  pz   0.70726
    7.1     2.00000    -8.08552     1  1  px   0.70100    2  1  px   0.70100
    8.1     2.00000    -8.08552     1  1  py   0.70100    2  1  py   0.70100
    9.1     2.00000    -8.08551     1  1  px   0.68366    2  1  px  -0.68366
   10.1     2.00000    -8.08551     1  1  py   0.68366    2  1  py  -0.68366
   11.1     2.00000    -1.22584     1  3  s    0.65371    2  3  s    0.65371
   12.1     2.00000    -1.01896     1  3  s    0.71672    2  3  s   -0.71672
   13.1     2.00000    -0.60097     1  2  pz   0.66810    2  2  pz  -0.66810
   14.1     2.00000    -0.57180     1  2  px   0.59062    1  2  py   0.33641    2  2  px   0.59062    2  2  py   0.33641
   15.1     2.00000    -0.57180     1  2  px  -0.33641    1  2  py   0.59062    2  2  px  -0.33641    2  2  py   0.59062
   16.1     2.00000    -0.44621     1  2  py   0.74247    2  2  py  -0.74247
   17.1     2.00000    -0.44621     1  2  px   0.74247    2  2  px  -0.74247


 HOMO     17.1    -0.446213 =     -12.1421eV
 LUMO     18.1     0.020835 =       0.5669eV
 LUMO-HOMO         0.467048 =      12.7090eV

 Orbitals saved in record  2100.2


 **********************************************************************************************************************************
 DATASETS  * FILE   NREC   LENGTH (MB)   RECORD NAMES
              1      18       28.69       500      610      700      900      950      970     1000      129      960     1100   
                                          VAR    BASINP    GEOM    SYMINP    ZMAT    AOBASIS   BASIS     P2S    ABASIS      S 
                                         1400     1410     1200     1210     1080     1600     1650     1700   
                                           T        V       H0       H01     AOSYM     SMH    MOLCAS    OPER   

              2       4        0.41       700     1000      520     2100   
                                         GEOM     BASIS   MCVARS     RHF  

 PROGRAMS   *        TOTAL     DF-HF       INT
 CPU TIMES  *         0.54      0.20      0.21
 REAL TIME  *         1.69 SEC
 DISK USED  *        29.34 MB (local),      469.41 MB (total)
 SF USED    *         1.90 MB
 GA USED    *         0.00 MB       (max)       0.00 MB       (current)
 **********************************************************************************************************************************

 DF-HF/aug-cc-pVDZ energy=   -918.965701953990

           DF-HF
   -918.96570195
 **********************************************************************************************************************************
 Molpro calculation terminated
