 Entering Gaussian System, Link 0=g16
 Input=geom_opt_cl2_b3lyp.com
 Output=geom_opt_cl2_b3lyp.log
 Initial command:
 /gpfs01/home/coiron/apps/G16.C01/SANDYBRIDGE/g16/l1.exe "/bscratch/emmanous/3821482.pbs01/Gau-15023.inp" -scrdir="/bscratch/emmanous/3821482.pbs01/"
 Entering Link 1 = /gpfs01/home/coiron/apps/G16.C01/SANDYBRIDGE/g16/l1.exe PID=     15024.
  
 Copyright (c) 1988-2019, Gaussian, Inc.  All Rights Reserved.
  
 This is part of the Gaussian(R) 16 program.  It is based on
 the Gaussian(R) 09 system (copyright 2009, Gaussian, Inc.),
 the Gaussian(R) 03 system (copyright 2003, Gaussian, Inc.),
 the Gaussian(R) 98 system (copyright 1998, Gaussian, Inc.),
 the Gaussian(R) 94 system (copyright 1995, Gaussian, Inc.),
 the Gaussian 92(TM) system (copyright 1992, Gaussian, Inc.),
 the Gaussian 90(TM) system (copyright 1990, Gaussian, Inc.),
 the Gaussian 88(TM) system (copyright 1988, Gaussian, Inc.),
 the Gaussian 86(TM) system (copyright 1986, Carnegie Mellon
 University), and the Gaussian 82(TM) system (copyright 1983,
 Carnegie Mellon University). Gaussian is a federally registered
 trademark of Gaussian, Inc.
  
 This software contains proprietary and confidential information,
 including trade secrets, belonging to Gaussian, Inc.
  
 This software is provided under written license and may be
 used, copied, transmitted, or stored only in accord with that
 written license.
  
 The following legend is applicable only to US Government
 contracts under FAR:
  
                    RESTRICTED RIGHTS LEGEND
  
 Use, reproduction and disclosure by the US Government is
 subject to restrictions as set forth in subparagraphs (a)
 and (c) of the Commercial Computer Software - Restricted
 Rights clause in FAR 52.227-19.
  
 Gaussian, Inc.
 340 Quinnipiac St., Bldg. 40, Wallingford CT 06492
  
  
 ---------------------------------------------------------------
 Warning -- This program may not be used in any manner that
 competes with the business of Gaussian, Inc. or will provide
 assistance to any competitor of Gaussian, Inc.  The licensee
 of this program is prohibited from giving any competitor of
 Gaussian, Inc. access to this program.  By using this program,
 the user acknowledges that Gaussian, Inc. is engaged in the
 business of creating and licensing software in the field of
 computational chemistry and represents and warrants to the
 licensee that it is not a competitor of Gaussian, Inc. and that
 it will not use this program in any manner prohibited above.
 ---------------------------------------------------------------
  

 Cite this work as:
 Gaussian 16, Revision C.01,
 M. J. Frisch, G. W. Trucks, H. B. Schlegel, G. E. Scuseria, 
 M. A. Robb, J. R. Cheeseman, G. Scalmani, V. Barone, 
 G. A. Petersson, H. Nakatsuji, X. Li, M. Caricato, A. V. Marenich, 
 J. Bloino, B. G. Janesko, R. Gomperts, B. Mennucci, H. P. Hratchian, 
 J. V. Ortiz, A. F. Izmaylov, J. L. Sonnenberg, D. Williams-Young, 
 F. Ding, F. Lipparini, F. Egidi, J. Goings, B. Peng, A. Petrone, 
 T. Henderson, D. Ranasinghe, V. G. Zakrzewski, J. Gao, N. Rega, 
 G. Zheng, W. Liang, M. Hada, M. Ehara, K. Toyota, R. Fukuda, 
 J. Hasegawa, M. Ishida, T. Nakajima, Y. Honda, O. Kitao, H. Nakai, 
 T. Vreven, K. Throssell, J. A. Montgomery, Jr., J. E. Peralta, 
 F. Ogliaro, M. J. Bearpark, J. J. Heyd, E. N. Brothers, K. N. Kudin, 
 V. N. Staroverov, T. A. Keith, R. Kobayashi, J. Normand, 
 K. Raghavachari, A. P. Rendell, J. C. Burant, S. S. Iyengar, 
 J. Tomasi, M. Cossi, J. M. Millam, M. Klene, C. Adamo, R. Cammi, 
 J. W. Ochterski, R. L. Martin, K. Morokuma, O. Farkas, 
 J. B. Foresman, and D. J. Fox, Gaussian, Inc., Wallingford CT, 2019.
 
 ******************************************
 Gaussian 16:  ES64L-G16RevC.01  3-Jul-2019
                13-Jul-2023 
 ******************************************
 %nprocshared=16
 Will use up to   16 processors via shared memory.
 %mem=200gb
 ----------------------
 #n B3LYP/def2QZVPP Opt
 ----------------------
 1/18=20,19=15,26=3,38=1/1,3;
 2/9=110,12=2,17=6,18=5,40=1/2;
 3/5=45,7=202,11=2,25=1,30=1,71=1,74=-5/1,2,3;
 4//1;
 5/5=2,38=5/2;
 6/7=2,8=2,9=2,10=2,28=1/1;
 7//1,2,3,16;
 1/18=20,19=15,26=3/3(2);
 2/9=110/2;
 99//99;
 2/9=110/2;
 3/5=45,7=202,11=2,25=1,30=1,71=1,74=-5/1,2,3;
 4/5=5,16=3,69=1/1;
 5/5=2,38=5/2;
 7//1,2,3,16;
 1/18=20,19=15,26=3/3(-5);
 2/9=110/2;
 6/7=2,8=2,9=2,10=2,19=2,28=1/1;
 99/9=1/99;
 -----
 Title
 -----
 Symbolic Z-matrix:
 Charge =  0 Multiplicity = 1
 Cl
 Cl                   1    B1
       Variables:
  B1                    2.012                    
 

 GradGradGradGradGradGradGradGradGradGradGradGradGradGradGradGradGradGrad
 Berny optimization.
 Initialization pass.
                           ----------------------------
                           !    Initial Parameters    !
                           ! (Angstroms and Degrees)  !
 --------------------------                            --------------------------
 ! Name  Definition              Value          Derivative Info.                !
 --------------------------------------------------------------------------------
 ! R1    R(1,2)                  2.012          estimate D2E/DX2                !
 --------------------------------------------------------------------------------
 Trust Radius=3.00D-01 FncErr=1.00D-07 GrdErr=1.00D-06 EigMax=2.50D+02 EigMin=1.00D-04
 Number of steps in this run=     20 maximum allowed number of steps=    100.
 GradGradGradGradGradGradGradGradGradGradGradGradGradGradGradGradGradGrad

                          Input orientation:                          
 ---------------------------------------------------------------------
 Center     Atomic      Atomic             Coordinates (Angstroms)
 Number     Number       Type             X           Y           Z
 ---------------------------------------------------------------------
      1         17           0        0.000000    0.000000    0.000000
      2         17           0        0.000000    0.000000    2.012000
 ---------------------------------------------------------------------
 Stoichiometry    Cl2
 Framework group  D*H[C*(Cl.Cl)]
 Deg. of freedom     1
 Full point group                 D*H     NOp   8
 Largest Abelian subgroup         D2H     NOp   8
 Largest concise Abelian subgroup C2      NOp   2
                         Standard orientation:                         
 ---------------------------------------------------------------------
 Center     Atomic      Atomic             Coordinates (Angstroms)
 Number     Number       Type             X           Y           Z
 ---------------------------------------------------------------------
      1         17           0        0.000000    0.000000    1.006000
      2         17           0        0.000000    0.000000   -1.006000
 ---------------------------------------------------------------------
 Rotational constants (GHZ):           0.0000000           7.1401915           7.1401915
 Standard basis: def2QZVPP (5D, 7F)
 There are    39 symmetry adapted cartesian basis functions of AG  symmetry.
 There are     9 symmetry adapted cartesian basis functions of B1G symmetry.
 There are    19 symmetry adapted cartesian basis functions of B2G symmetry.
 There are    19 symmetry adapted cartesian basis functions of B3G symmetry.
 There are     9 symmetry adapted cartesian basis functions of AU  symmetry.
 There are    39 symmetry adapted cartesian basis functions of B1U symmetry.
 There are    19 symmetry adapted cartesian basis functions of B2U symmetry.
 There are    19 symmetry adapted cartesian basis functions of B3U symmetry.
 There are    30 symmetry adapted basis functions of AG  symmetry.
 There are     8 symmetry adapted basis functions of B1G symmetry.
 There are    16 symmetry adapted basis functions of B2G symmetry.
 There are    16 symmetry adapted basis functions of B3G symmetry.
 There are     8 symmetry adapted basis functions of AU  symmetry.
 There are    30 symmetry adapted basis functions of B1U symmetry.
 There are    16 symmetry adapted basis functions of B2U symmetry.
 There are    16 symmetry adapted basis functions of B3U symmetry.
   140 basis functions,   242 primitive gaussians,   172 cartesian basis functions
    17 alpha electrons       17 beta electrons
       nuclear repulsion energy        76.0100466978 Hartrees.
 NAtoms=    2 NActive=    2 NUniq=    1 SFac= 4.00D+00 NAtFMM=   60 NAOKFM=F Big=F
 Integral buffers will be    131072 words long.
 Raffenetti 2 integral format.
 Two-electron integral symmetry is turned on.
 One-electron integrals computed using PRISM.
   8 Symmetry operations used in ECPInt.
 ECPInt:  NShTT=     990 NPrTT=    3557 LenC2=     965 LenP2D=    2923.
 LDataN:  DoStor=T MaxTD1= 8 Len=  415
 NBasis=   140 RedAO= T EigKep=  6.08D-04  NBF=    30     8    16    16     8    30    16    16
 NBsUse=   140 1.00D-06 EigRej= -1.00D+00 NBFU=    30     8    16    16     8    30    16    16
 ExpMin= 9.32D-02 ExpMax= 1.47D+06 ExpMxC= 1.67D+03 IAcc=3 IRadAn=         5 AccDes= 0.00D+00
 Harris functional with IExCor=  402 and IRadAn=       5 diagonalized for initial guess.
 HarFok:  IExCor=  402 AccDes= 0.00D+00 IRadAn=         5 IDoV= 1 UseB2=F ITyADJ=14
 ICtDFT=  3500011 ScaDFX=  1.000000  1.000000  1.000000  1.000000
 FoFCou: FMM=F IPFlag=           0 FMFlag=      100000 FMFlg1=           0
         NFxFlg=           0 DoJE=T BraDBF=F KetDBF=T FulRan=T
         wScrn=  0.000000 ICntrl=       500 IOpCl=  0 I1Cent=   200000004 NGrid=           0
         NMat0=    1 NMatS0=      1 NMatT0=    0 NMatD0=    1 NMtDS0=    0 NMtDT0=    0
 Petite list used in FoFCou.
 Initial guess orbital symmetries:
       Occupied  (SGU) (SGG) (SGG) (SGU) (SGG) (SGU) (PIU) (PIU)
                 (PIG) (PIG) (SGG) (SGU) (SGG) (PIU) (PIU) (PIG)
                 (PIG)
       Virtual   (SGU) (SGU) (SGG) (PIU) (PIU) (SGG) (PIG) (PIG)
                 (PIU) (PIU) (DLTG) (DLTG) (DLTU) (DLTU) (SGU)
                 (SGG) (PIG) (PIG) (SGU) (PIU) (PIU) (SGG) (PIU)
                 (PIU) (DLTG) (DLTG) (PIG) (PIG) (DLTU) (DLTU)
                 (SGG) (DLTG) (DLTG) (SGU) (PIG) (PIG) (PHIU) (PHIU)
                 (SGU) (PHIG) (PHIG) (PIU) (PIU) (DLTU) (DLTU)
                 (SGU) (SGG) (SGG) (PIG) (PIG) (SGU) (PIU) (PIU)
                 (DLTG) (DLTG) (SGG) (DLTU) (DLTU) (PIG) (PIG)
                 (DLTG) (DLTG) (SGG) (PIU) (PIU) (PHIU) (PHIU)
                 (SGU) (?A) (?A) (?B) (?B) (PHIG) (PHIG) (PIU)
                 (PIU) (PIG) (PIG) (DLTU) (DLTU) (SGU) (SGG) (PHIU)
                 (PHIU) (DLTG) (DLTG) (PHIG) (PHIG) (PIG) (PIG)
                 (PIU) (PIU) (DLTU) (DLTU) (SGU) (PIG) (PIG) (SGG)
                 (SGU) (SGG) (SGU) (DLTG) (DLTG) (PIU) (PIU) (DLTU)
                 (DLTU) (SGG) (PIG) (PIG) (SGU) (SGG) (SGU) (PIU)
                 (PIU) (PIG) (PIG) (SGG) (SGU) (SGG) (SGU) (SGG)
                 (SGU)
 The electronic state of the initial guess is 1-SGG.
 Keep R1 ints in memory in symmetry-blocked form, NReq=66892666.
 Requested convergence on RMS density matrix=1.00D-08 within 128 cycles.
 Requested convergence on MAX density matrix=1.00D-06.
 Requested convergence on             energy=1.00D-06.
 No special actions if energy rises.
 Integral accuracy reduced to 1.0D-05 until final iterations.
 Initial convergence to 1.0D-05 achieved.  Increase integral accuracy.
 SCF Done:  E(RB3LYP) =  -920.452610013     A.U. after   10 cycles
            NFock= 10  Conv=0.32D-08     -V/T= 2.0016

 **********************************************************************

            Population analysis using the SCF Density.

 **********************************************************************

 Orbital symmetries:
       Occupied  (SGG) (SGU) (SGG) (SGU) (SGG) (SGU) (PIU) (PIU)
                 (PIG) (PIG) (SGG) (SGU) (SGG) (PIU) (PIU) (PIG)
                 (PIG)
       Virtual   (SGU) (SGU) (SGG) (PIU) (PIU) (SGG) (PIG) (PIG)
                 (PIU) (PIU) (DLTG) (DLTG) (DLTU) (DLTU) (SGU)
                 (SGG) (PIG) (PIG) (SGU) (SGG) (PIU) (PIU) (PIU)
                 (PIU) (DLTG) (DLTG) (PIG) (PIG) (SGG) (DLTU) (DLTU)
                 (DLTG) (DLTG) (SGU) (PIG) (PIG) (PHIU) (PHIU)
                 (SGU) (PHIG) (PHIG) (PIU) (PIU) (DLTU) (DLTU)
                 (SGU) (SGG) (SGG) (PIG) (PIG) (SGU) (PIU) (PIU)
                 (SGG) (DLTG) (DLTG) (DLTU) (DLTU) (PIG) (PIG)
                 (DLTG) (DLTG) (SGG) (PIU) (PIU) (PHIU) (PHIU)
                 (SGU) (?A) (?A) (?B) (?B) (PHIG) (PHIG) (DLTU)
                 (DLTU) (SGU) (PIU) (PIU) (SGG) (PIG) (PIG) (PHIU)
                 (PHIU) (DLTG) (DLTG) (PHIG) (PHIG) (PIG) (PIG)
                 (PIU) (PIU) (DLTU) (DLTU) (SGU) (PIG) (PIG) (SGG)
                 (SGU) (SGG) (SGU) (PIU) (PIU) (DLTG) (DLTG) (DLTU)
                 (DLTU) (SGG) (PIG) (PIG) (SGU) (SGG) (SGU) (PIU)
                 (PIU) (PIG) (PIG) (SGG) (SGU) (SGG) (SGU) (SGG)
                 (SGU)
 The electronic state is 1-SGG.
 Alpha  occ. eigenvalues -- -101.58593-101.58593  -9.51388  -9.51383  -7.27942
 Alpha  occ. eigenvalues --   -7.27928  -7.26582  -7.26582  -7.26581  -7.26581
 Alpha  occ. eigenvalues --   -0.93406  -0.77467  -0.47529  -0.41163  -0.41163
 Alpha  occ. eigenvalues --   -0.31237  -0.31237
 Alpha virt. eigenvalues --   -0.13200   0.13304   0.14034   0.16119   0.16119
 Alpha virt. eigenvalues --    0.19285   0.21004   0.21004   0.22380   0.22380
 Alpha virt. eigenvalues --    0.24827   0.24827   0.35847   0.35847   0.40586
 Alpha virt. eigenvalues --    0.44606   0.52123   0.52123   0.67066   1.00312
 Alpha virt. eigenvalues --    1.02189   1.02189   1.04097   1.04097   1.08132
 Alpha virt. eigenvalues --    1.08132   1.09821   1.09821   1.12585   1.14014
 Alpha virt. eigenvalues --    1.14015   1.14734   1.14734   1.17054   1.21693
 Alpha virt. eigenvalues --    1.21693   1.23685   1.23685   1.33468   1.34905
 Alpha virt. eigenvalues --    1.34905   1.38708   1.38708   1.57692   1.57692
 Alpha virt. eigenvalues --    1.75662   1.78807   1.99332   2.02265   2.02265
 Alpha virt. eigenvalues --    2.65902   2.96644   2.96644   3.09155   3.09595
 Alpha virt. eigenvalues --    3.09596   3.19042   3.19044   3.28469   3.28469
 Alpha virt. eigenvalues --    3.32225   3.32227   3.35869   3.38591   3.38591
 Alpha virt. eigenvalues --    3.43748   3.43748   3.52669   3.54318   3.54323
 Alpha virt. eigenvalues --    3.56611   3.56616   3.63251   3.63251   3.77706
 Alpha virt. eigenvalues --    3.77706   3.79383   3.80014   3.80014   3.81602
 Alpha virt. eigenvalues --    3.81896   3.81896   3.83854   3.83854   3.83893
 Alpha virt. eigenvalues --    3.83893   3.90924   3.90924   4.02628   4.02628
 Alpha virt. eigenvalues --    4.16969   4.16969   4.20008   4.20010   4.31802
 Alpha virt. eigenvalues --    4.85694   4.85694   4.99551   5.37495   7.99584
 Alpha virt. eigenvalues --    8.65060  10.52673  10.52673  10.53312  10.53312
 Alpha virt. eigenvalues --   10.58417  10.58417  10.66025  10.73428  10.73428
 Alpha virt. eigenvalues --   11.32307  28.24797  28.85522  41.62730  41.62730
 Alpha virt. eigenvalues --   41.63208  41.63208  41.65369  41.66771  97.76742
 Alpha virt. eigenvalues --   98.33309 524.65837 525.61207
          Condensed to atoms (all electrons):
               1          2
     1  Cl  16.881790   0.118210
     2  Cl   0.118210  16.881790
 Mulliken charges:
               1
     1  Cl   0.000000
     2  Cl   0.000000
 Sum of Mulliken charges =   0.00000
 Mulliken charges with hydrogens summed into heavy atoms:
               1
     1  Cl   0.000000
     2  Cl   0.000000
 Electronic spatial extent (au):  <R**2>=            177.2336
 Charge=              0.0000 electrons
 Dipole moment (field-independent basis, Debye):
    X=              0.0000    Y=              0.0000    Z=              0.0000  Tot=              0.0000
 Quadrupole moment (field-independent basis, Debye-Ang):
   XX=            -25.4269   YY=            -25.4269   ZZ=            -22.2570
   XY=              0.0000   XZ=              0.0000   YZ=              0.0000
 Traceless Quadrupole moment (field-independent basis, Debye-Ang):
   XX=             -1.0566   YY=             -1.0566   ZZ=              2.1132
   XY=              0.0000   XZ=              0.0000   YZ=              0.0000
 Octapole moment (field-independent basis, Debye-Ang**2):
  XXX=             -0.0000  YYY=              0.0000  ZZZ=              0.0000  XYY=             -0.0000
  XXY=              0.0000  XXZ=             -0.0000  XZZ=             -0.0000  YZZ=              0.0000
  YYZ=             -0.0000  XYZ=              0.0000
 Hexadecapole moment (field-independent basis, Debye-Ang**3):
 XXXX=            -28.9958 YYYY=            -28.9958 ZZZZ=           -154.2714 XXXY=              0.0000
 XXXZ=              0.0000 YYYX=              0.0000 YYYZ=              0.0000 ZZZX=              0.0000
 ZZZY=              0.0000 XXYY=             -9.6653 XXZZ=            -35.2423 YYZZ=            -35.2423
 XXYZ=              0.0000 YYXZ=              0.0000 ZZXY=             -0.0000
 N-N= 7.601004669775D+01 E-N=-2.340668265207D+03  KE= 9.189648304861D+02
 Symmetry AG   KE= 3.692048987195D+02
 Symmetry B1G  KE= 4.976698727569D-34
 Symmetry B2G  KE= 4.656517175576D+01
 Symmetry B3G  KE= 4.656517175576D+01
 Symmetry AU   KE= 2.644115696552D-33
 Symmetry B1U  KE= 3.652161850663D+02
 Symmetry B2U  KE= 4.570670159433D+01
 Symmetry B3U  KE= 4.570670159433D+01
   8 Symmetry operations used in ECPInt.
 ECPInt:  NShTT=     990 NPrTT=    3557 LenC2=     965 LenP2D=    2923.
 LDataN:  DoStor=T MaxTD1= 9 Len=  602
 Calling FoFJK, ICntrl=      2127 FMM=F ISym2X=1 I1Cent= 0 IOpClX= 0 NMat=1 NMatS=1 NMatT=0.
 ***** Axes restored to original set *****
 -------------------------------------------------------------------
 Center     Atomic                   Forces (Hartrees/Bohr)
 Number     Number              X              Y              Z
 -------------------------------------------------------------------
      1       17           0.000000000    0.000000000    0.000945934
      2       17          -0.000000000   -0.000000000   -0.000945934
 -------------------------------------------------------------------
 Cartesian Forces:  Max     0.000945934 RMS     0.000546135

 GradGradGradGradGradGradGradGradGradGradGradGradGradGradGradGradGradGrad
 Berny optimization.
 FormGI is forming the generalized inverse of G from B-inverse, IUseBI=4.
 Internal  Forces:  Max     0.000945934 RMS     0.000945934
 Search for a local minimum.
 Step number   1 out of a maximum of   20
 All quantities printed in internal units (Hartrees-Bohrs-Radians)
 Mixed Optimization -- En-DIIS/RFO-DIIS
 Second derivative matrix not updated -- first step.
 The second derivative matrix:
                          R1
           R1           0.33251
 ITU=  0
     Eigenvalues ---    0.33251
 RFO step:  Lambda=-2.69099485D-06 EMin= 3.32510159D-01
 Linear search not attempted -- first point.
 Iteration  1 RMS(Cart)=  0.00201158 RMS(Int)=  0.00000000
 Iteration  2 RMS(Cart)=  0.00000000 RMS(Int)=  0.00000000
 ClnCor:  largest displacement from symmetrization is 4.42D-19 for atom     1.
 Variable       Old X    -DE/DX   Delta X   Delta X   Delta X     New X
                                 (Linear)    (Quad)   (Total)
    R1        3.80213  -0.00095   0.00000  -0.00284  -0.00284   3.79928
         Item               Value     Threshold  Converged?
 Maximum Force            0.000946     0.000450     NO 
 RMS     Force            0.000946     0.000300     NO 
 Maximum Displacement     0.001422     0.001800     YES
 RMS     Displacement     0.002012     0.001200     NO 
 Predicted change in Energy=-1.345508D-06
 GradGradGradGradGradGradGradGradGradGradGradGradGradGradGradGradGradGrad

                          Input orientation:                          
 ---------------------------------------------------------------------
 Center     Atomic      Atomic             Coordinates (Angstroms)
 Number     Number       Type             X           Y           Z
 ---------------------------------------------------------------------
      1         17           0        0.000000    0.000000    0.000753
      2         17           0        0.000000    0.000000    2.011247
 ---------------------------------------------------------------------
 Stoichiometry    Cl2
 Framework group  D*H[C*(Cl.Cl)]
 Deg. of freedom     1
 Full point group                 D*H     NOp   8
 Largest Abelian subgroup         D2H     NOp   8
 Largest concise Abelian subgroup C2      NOp   2
                         Standard orientation:                         
 ---------------------------------------------------------------------
 Center     Atomic      Atomic             Coordinates (Angstroms)
 Number     Number       Type             X           Y           Z
 ---------------------------------------------------------------------
      1         17           0        0.000000    0.000000    1.005247
      2         17           0        0.000000    0.000000   -1.005247
 ---------------------------------------------------------------------
 Rotational constants (GHZ):           0.0000000           7.1508883           7.1508883
 Standard basis: def2QZVPP (5D, 7F)
 There are    39 symmetry adapted cartesian basis functions of AG  symmetry.
 There are     9 symmetry adapted cartesian basis functions of B1G symmetry.
 There are    19 symmetry adapted cartesian basis functions of B2G symmetry.
 There are    19 symmetry adapted cartesian basis functions of B3G symmetry.
 There are     9 symmetry adapted cartesian basis functions of AU  symmetry.
 There are    39 symmetry adapted cartesian basis functions of B1U symmetry.
 There are    19 symmetry adapted cartesian basis functions of B2U symmetry.
 There are    19 symmetry adapted cartesian basis functions of B3U symmetry.
 There are    30 symmetry adapted basis functions of AG  symmetry.
 There are     8 symmetry adapted basis functions of B1G symmetry.
 There are    16 symmetry adapted basis functions of B2G symmetry.
 There are    16 symmetry adapted basis functions of B3G symmetry.
 There are     8 symmetry adapted basis functions of AU  symmetry.
 There are    30 symmetry adapted basis functions of B1U symmetry.
 There are    16 symmetry adapted basis functions of B2U symmetry.
 There are    16 symmetry adapted basis functions of B3U symmetry.
   140 basis functions,   242 primitive gaussians,   172 cartesian basis functions
    17 alpha electrons       17 beta electrons
       nuclear repulsion energy        76.0669610030 Hartrees.
 NAtoms=    2 NActive=    2 NUniq=    1 SFac= 4.00D+00 NAtFMM=   60 NAOKFM=F Big=F
 Integral buffers will be    131072 words long.
 Raffenetti 2 integral format.
 Two-electron integral symmetry is turned on.
 One-electron integrals computed using PRISM.
   8 Symmetry operations used in ECPInt.
 ECPInt:  NShTT=     990 NPrTT=    3557 LenC2=     965 LenP2D=    2923.
 LDataN:  DoStor=T MaxTD1= 8 Len=  415
 NBasis=   140 RedAO= T EigKep=  6.05D-04  NBF=    30     8    16    16     8    30    16    16
 NBsUse=   140 1.00D-06 EigRej= -1.00D+00 NBFU=    30     8    16    16     8    30    16    16
 Initial guess from the checkpoint file:  "/bscratch/emmanous/3821482.pbs01/Gau-15024.chk"
 B after Tr=    -0.000000    0.000000    0.000000
         Rot=    1.000000    0.000000    0.000000    0.000000 Ang=   0.00 deg.
 Initial guess orbital symmetries:
       Occupied  (SGG) (SGU) (SGG) (SGU) (SGG) (SGU) (PIU) (PIU)
                 (PIG) (PIG) (SGG) (SGU) (SGG) (PIU) (PIU) (PIG)
                 (PIG)
       Virtual   (SGU) (SGU) (SGG) (PIU) (PIU) (SGG) (PIG) (PIG)
                 (PIU) (PIU) (DLTG) (DLTG) (DLTU) (DLTU) (SGU)
                 (SGG) (PIG) (PIG) (SGU) (SGG) (PIU) (PIU) (PIU)
                 (PIU) (DLTG) (DLTG) (PIG) (PIG) (SGG) (DLTU) (DLTU)
                 (DLTG) (DLTG) (SGU) (PIG) (PIG) (PHIU) (PHIU)
                 (SGU) (PHIG) (PHIG) (PIU) (PIU) (DLTU) (DLTU)
                 (SGU) (SGG) (SGG) (PIG) (PIG) (SGU) (PIU) (PIU)
                 (SGG) (DLTG) (DLTG) (DLTU) (DLTU) (PIG) (PIG)
                 (DLTG) (DLTG) (SGG) (PIU) (PIU) (PHIU) (PHIU)
                 (SGU) (?A) (?A) (?B) (?B) (PHIG) (PHIG) (DLTU)
                 (DLTU) (SGU) (PIU) (PIU) (SGG) (PIG) (PIG) (PHIU)
                 (PHIU) (DLTG) (DLTG) (PHIG) (PHIG) (PIG) (PIG)
                 (PIU) (PIU) (DLTU) (DLTU) (SGU) (PIG) (PIG) (SGG)
                 (SGU) (SGG) (SGU) (PIU) (PIU) (DLTG) (DLTG) (DLTU)
                 (DLTU) (SGG) (PIG) (PIG) (SGU) (SGG) (SGU) (PIU)
                 (PIU) (PIG) (PIG) (SGG) (SGU) (SGG) (SGU) (SGG)
                 (SGU)
 Keep R1 ints in memory in symmetry-blocked form, NReq=66892666.
 Requested convergence on RMS density matrix=1.00D-08 within 128 cycles.
 Requested convergence on MAX density matrix=1.00D-06.
 Requested convergence on             energy=1.00D-06.
 No special actions if energy rises.
 SCF Done:  E(RB3LYP) =  -920.452611924     A.U. after    5 cycles
            NFock=  5  Conv=0.80D-08     -V/T= 2.0016
   8 Symmetry operations used in ECPInt.
 ECPInt:  NShTT=     990 NPrTT=    3557 LenC2=     965 LenP2D=    2923.
 LDataN:  DoStor=T MaxTD1= 9 Len=  602
 Calling FoFJK, ICntrl=      2127 FMM=F ISym2X=1 I1Cent= 0 IOpClX= 0 NMat=1 NMatS=1 NMatT=0.
 ***** Axes restored to original set *****
 -------------------------------------------------------------------
 Center     Atomic                   Forces (Hartrees/Bohr)
 Number     Number              X              Y              Z
 -------------------------------------------------------------------
      1       17           0.000000000    0.000000000    0.000397099
      2       17          -0.000000000   -0.000000000   -0.000397099
 -------------------------------------------------------------------
 Cartesian Forces:  Max     0.000397099 RMS     0.000229265

 GradGradGradGradGradGradGradGradGradGradGradGradGradGradGradGradGradGrad
 Berny optimization.
 Using GEDIIS/GDIIS optimizer.
 Internal  Forces:  Max     0.000397099 RMS     0.000397099
 Search for a local minimum.
 Step number   2 out of a maximum of   20
 All quantities printed in internal units (Hartrees-Bohrs-Radians)
 Mixed Optimization -- En-DIIS/RFO-DIIS
 Swapping is turned off.
 Update second derivatives using D2CorX and points    1    2
 DE= -1.91D-06 DEPred=-1.35D-06 R= 1.42D+00
 TightC=F SS=  1.41D+00  RLast= 2.84D-03 DXNew= 5.0454D-01 8.5344D-03
 Trust test= 1.42D+00 RLast= 2.84D-03 DXMaxT set to 3.00D-01
 The second derivative matrix:
                          R1
           R1           0.19293
 ITU=  1  0
     Eigenvalues ---    0.19293
 En-DIIS/RFO-DIIS/Sim-DIIS IScMMF=       -3 using points:     2    1
 RFO step:  Lambda=-8.17349256D-07.
 DidBck=F Rises=F RFO-DIIS coefs:    1.72353   -0.72353
 Iteration  1 RMS(Cart)=  0.00145544 RMS(Int)=  0.00000000
 Iteration  2 RMS(Cart)=  0.00000000 RMS(Int)=  0.00000000
 ClnCor:  largest displacement from symmetrization is 6.30D-20 for atom     1.
 Variable       Old X    -DE/DX   Delta X   Delta X   Delta X     New X
                                 (Linear)    (Quad)   (Total)
    R1        3.79928  -0.00040  -0.00206   0.00000  -0.00206   3.79723
         Item               Value     Threshold  Converged?
 Maximum Force            0.000397     0.000450     YES
 RMS     Force            0.000397     0.000300     NO 
 Maximum Displacement     0.001029     0.001800     YES
 RMS     Displacement     0.001455     0.001200     NO 
 Predicted change in Energy=-4.086764D-07
 GradGradGradGradGradGradGradGradGradGradGradGradGradGradGradGradGradGrad

                          Input orientation:                          
 ---------------------------------------------------------------------
 Center     Atomic      Atomic             Coordinates (Angstroms)
 Number     Number       Type             X           Y           Z
 ---------------------------------------------------------------------
      1         17           0        0.000000    0.000000    0.001297
      2         17           0        0.000000    0.000000    2.010703
 ---------------------------------------------------------------------
 Stoichiometry    Cl2
 Framework group  D*H[C*(Cl.Cl)]
 Deg. of freedom     1
 Full point group                 D*H     NOp   8
 Largest Abelian subgroup         D2H     NOp   8
 Largest concise Abelian subgroup C2      NOp   2
                         Standard orientation:                         
 ---------------------------------------------------------------------
 Center     Atomic      Atomic             Coordinates (Angstroms)
 Number     Number       Type             X           Y           Z
 ---------------------------------------------------------------------
      1         17           0        0.000000    0.000000    1.004703
      2         17           0        0.000000    0.000000   -1.004703
 ---------------------------------------------------------------------
 Rotational constants (GHZ):           0.0000000           7.1586427           7.1586427
 Standard basis: def2QZVPP (5D, 7F)
 There are    39 symmetry adapted cartesian basis functions of AG  symmetry.
 There are     9 symmetry adapted cartesian basis functions of B1G symmetry.
 There are    19 symmetry adapted cartesian basis functions of B2G symmetry.
 There are    19 symmetry adapted cartesian basis functions of B3G symmetry.
 There are     9 symmetry adapted cartesian basis functions of AU  symmetry.
 There are    39 symmetry adapted cartesian basis functions of B1U symmetry.
 There are    19 symmetry adapted cartesian basis functions of B2U symmetry.
 There are    19 symmetry adapted cartesian basis functions of B3U symmetry.
 There are    30 symmetry adapted basis functions of AG  symmetry.
 There are     8 symmetry adapted basis functions of B1G symmetry.
 There are    16 symmetry adapted basis functions of B2G symmetry.
 There are    16 symmetry adapted basis functions of B3G symmetry.
 There are     8 symmetry adapted basis functions of AU  symmetry.
 There are    30 symmetry adapted basis functions of B1U symmetry.
 There are    16 symmetry adapted basis functions of B2U symmetry.
 There are    16 symmetry adapted basis functions of B3U symmetry.
   140 basis functions,   242 primitive gaussians,   172 cartesian basis functions
    17 alpha electrons       17 beta electrons
       nuclear repulsion energy        76.1081935269 Hartrees.
 NAtoms=    2 NActive=    2 NUniq=    1 SFac= 4.00D+00 NAtFMM=   60 NAOKFM=F Big=F
 Integral buffers will be    131072 words long.
 Raffenetti 2 integral format.
 Two-electron integral symmetry is turned on.
 One-electron integrals computed using PRISM.
   8 Symmetry operations used in ECPInt.
 ECPInt:  NShTT=     990 NPrTT=    3557 LenC2=     965 LenP2D=    2923.
 LDataN:  DoStor=T MaxTD1= 8 Len=  415
 NBasis=   140 RedAO= T EigKep=  6.02D-04  NBF=    30     8    16    16     8    30    16    16
 NBsUse=   140 1.00D-06 EigRej= -1.00D+00 NBFU=    30     8    16    16     8    30    16    16
 Initial guess from the checkpoint file:  "/bscratch/emmanous/3821482.pbs01/Gau-15024.chk"
 B after Tr=    -0.000000    0.000000    0.000000
         Rot=    1.000000    0.000000    0.000000    0.000000 Ang=   0.00 deg.
 Initial guess orbital symmetries:
       Occupied  (SGG) (SGU) (SGG) (SGU) (SGG) (SGU) (PIU) (PIU)
                 (PIG) (PIG) (SGG) (SGU) (SGG) (PIU) (PIU) (PIG)
                 (PIG)
       Virtual   (SGU) (SGU) (SGG) (PIU) (PIU) (SGG) (PIG) (PIG)
                 (PIU) (PIU) (DLTG) (DLTG) (DLTU) (DLTU) (SGU)
                 (SGG) (PIG) (PIG) (SGU) (SGG) (PIU) (PIU) (PIU)
                 (PIU) (DLTG) (DLTG) (PIG) (PIG) (SGG) (DLTU) (DLTU)
                 (DLTG) (DLTG) (SGU) (PIG) (PIG) (PHIU) (PHIU)
                 (SGU) (PHIG) (PHIG) (PIU) (PIU) (DLTU) (DLTU)
                 (SGU) (SGG) (SGG) (PIG) (PIG) (SGU) (PIU) (PIU)
                 (SGG) (DLTG) (DLTG) (DLTU) (DLTU) (PIG) (PIG)
                 (DLTG) (DLTG) (SGG) (PIU) (PIU) (PHIU) (PHIU)
                 (SGU) (?A) (?A) (?B) (?B) (PHIG) (PHIG) (DLTU)
                 (DLTU) (SGU) (PIU) (PIU) (SGG) (PIG) (PIG) (PHIU)
                 (PHIU) (DLTG) (DLTG) (PHIG) (PHIG) (PIG) (PIG)
                 (PIU) (PIU) (DLTU) (DLTU) (SGU) (PIG) (PIG) (SGG)
                 (SGU) (SGG) (SGU) (PIU) (PIU) (DLTG) (DLTG) (DLTU)
                 (DLTU) (SGG) (PIG) (PIG) (SGU) (SGG) (SGU) (PIU)
                 (PIU) (PIG) (PIG) (SGG) (SGU) (SGG) (SGU) (SGG)
                 (SGU)
 Keep R1 ints in memory in symmetry-blocked form, NReq=66892666.
 Requested convergence on RMS density matrix=1.00D-08 within 128 cycles.
 Requested convergence on MAX density matrix=1.00D-06.
 Requested convergence on             energy=1.00D-06.
 No special actions if energy rises.
 SCF Done:  E(RB3LYP) =  -920.452612330     A.U. after    5 cycles
            NFock=  5  Conv=0.59D-08     -V/T= 2.0016
   8 Symmetry operations used in ECPInt.
 ECPInt:  NShTT=     990 NPrTT=    3557 LenC2=     965 LenP2D=    2923.
 LDataN:  DoStor=T MaxTD1= 9 Len=  602
 Calling FoFJK, ICntrl=      2127 FMM=F ISym2X=1 I1Cent= 0 IOpClX= 0 NMat=1 NMatS=1 NMatT=0.
 ***** Axes restored to original set *****
 -------------------------------------------------------------------
 Center     Atomic                   Forces (Hartrees/Bohr)
 Number     Number              X              Y              Z
 -------------------------------------------------------------------
      1       17           0.000000000    0.000000000   -0.000002444
      2       17          -0.000000000   -0.000000000    0.000002444
 -------------------------------------------------------------------
 Cartesian Forces:  Max     0.000002444 RMS     0.000001411

 GradGradGradGradGradGradGradGradGradGradGradGradGradGradGradGradGradGrad
 Berny optimization.
 Using GEDIIS/GDIIS optimizer.
 Internal  Forces:  Max     0.000002444 RMS     0.000002444
 Search for a local minimum.
 Step number   3 out of a maximum of   20
 All quantities printed in internal units (Hartrees-Bohrs-Radians)
 Mixed Optimization -- En-DIIS/RFO-DIIS
 Swapping is turned off.
 Update second derivatives using D2CorX and points    2    3
 DE= -4.06D-07 DEPred=-4.09D-07 R= 9.94D-01
 Trust test= 9.94D-01 RLast= 2.06D-03 DXMaxT set to 3.00D-01
 The second derivative matrix:
                          R1
           R1           0.19411
 ITU=  0  1
     Eigenvalues ---    0.19411
 En-DIIS/RFO-DIIS/Sim-DIIS IScMMF=       -3 using points:     3    2
 RFO step:  Lambda=-3.07837783D-11.
 DidBck=F Rises=F RFO-DIIS coefs:    0.99388    0.00612
 Iteration  1 RMS(Cart)=  0.00000890 RMS(Int)=  0.00000000
 Iteration  2 RMS(Cart)=  0.00000000 RMS(Int)=  0.00000000
 ClnCor:  largest displacement from symmetrization is 4.44D-16 for atom     2.
 Variable       Old X    -DE/DX   Delta X   Delta X   Delta X     New X
                                 (Linear)    (Quad)   (Total)
    R1        3.79723   0.00000   0.00001   0.00000   0.00001   3.79724
         Item               Value     Threshold  Converged?
 Maximum Force            0.000002     0.000450     YES
 RMS     Force            0.000002     0.000300     YES
 Maximum Displacement     0.000006     0.001800     YES
 RMS     Displacement     0.000009     0.001200     YES
 Predicted change in Energy=-1.539188D-11
 Optimization completed.
    -- Stationary point found.
                           ----------------------------
                           !   Optimized Parameters   !
                           ! (Angstroms and Degrees)  !
 --------------------------                            --------------------------
 ! Name  Definition              Value          Derivative Info.                !
 --------------------------------------------------------------------------------
 ! R1    R(1,2)                  2.0094         -DE/DX =    0.0                 !
 --------------------------------------------------------------------------------
 GradGradGradGradGradGradGradGradGradGradGradGradGradGradGradGradGradGrad

                          Input orientation:                          
 ---------------------------------------------------------------------
 Center     Atomic      Atomic             Coordinates (Angstroms)
 Number     Number       Type             X           Y           Z
 ---------------------------------------------------------------------
      1         17           0        0.000000    0.000000    0.001297
      2         17           0        0.000000    0.000000    2.010703
 ---------------------------------------------------------------------
 Stoichiometry    Cl2
 Framework group  D*H[C*(Cl.Cl)]
 Deg. of freedom     1
 Full point group                 D*H     NOp   8
 Largest Abelian subgroup         D2H     NOp   8
 Largest concise Abelian subgroup C2      NOp   2
                         Standard orientation:                         
 ---------------------------------------------------------------------
 Center     Atomic      Atomic             Coordinates (Angstroms)
 Number     Number       Type             X           Y           Z
 ---------------------------------------------------------------------
      1         17           0        0.000000    0.000000    1.004703
      2         17           0        0.000000    0.000000   -1.004703
 ---------------------------------------------------------------------
 Rotational constants (GHZ):           0.0000000           7.1586427           7.1586427

 **********************************************************************

            Population analysis using the SCF Density.

 **********************************************************************

 Orbital symmetries:
       Occupied  (SGG) (SGU) (SGG) (SGU) (SGG) (SGU) (PIU) (PIU)
                 (PIG) (PIG) (SGG) (SGU) (SGG) (PIU) (PIU) (PIG)
                 (PIG)
       Virtual   (SGU) (SGU) (SGG) (PIU) (PIU) (SGG) (PIG) (PIG)
                 (PIU) (PIU) (DLTG) (DLTG) (DLTU) (DLTU) (SGU)
                 (SGG) (PIG) (PIG) (SGU) (SGG) (PIU) (PIU) (PIU)
                 (PIU) (DLTG) (DLTG) (PIG) (PIG) (SGG) (DLTU) (DLTU)
                 (DLTG) (DLTG) (SGU) (PIG) (PIG) (PHIU) (PHIU)
                 (SGU) (PHIG) (PHIG) (PIU) (PIU) (DLTU) (DLTU)
                 (SGU) (SGG) (SGG) (PIG) (PIG) (SGU) (PIU) (PIU)
                 (SGG) (DLTG) (DLTG) (DLTU) (DLTU) (PIG) (PIG)
                 (DLTG) (DLTG) (SGG) (PIU) (PIU) (PHIU) (PHIU)
                 (SGU) (?A) (?A) (?B) (?B) (PHIG) (PHIG) (DLTU)
                 (DLTU) (SGU) (PIU) (PIU) (SGG) (PIG) (PIG) (PHIU)
                 (PHIU) (DLTG) (DLTG) (PHIG) (PHIG) (PIG) (PIG)
                 (PIU) (PIU) (DLTU) (DLTU) (SGU) (PIG) (PIG) (SGG)
                 (SGU) (SGG) (SGU) (PIU) (PIU) (DLTG) (DLTG) (DLTU)
                 (DLTU) (SGG) (PIG) (PIG) (SGU) (SGG) (SGU) (PIU)
                 (PIU) (PIG) (PIG) (SGG) (SGU) (SGG) (SGU) (SGG)
                 (SGU)
 The electronic state is 1-SGG.
 Alpha  occ. eigenvalues -- -101.58582-101.58582  -9.51381  -9.51376  -7.27934
 Alpha  occ. eigenvalues --   -7.27919  -7.26575  -7.26575  -7.26574  -7.26574
 Alpha  occ. eigenvalues --   -0.93469  -0.77439  -0.47554  -0.41192  -0.41192
 Alpha  occ. eigenvalues --   -0.31215  -0.31215
 Alpha virt. eigenvalues --   -0.13121   0.13309   0.14015   0.16107   0.16107
 Alpha virt. eigenvalues --    0.19281   0.21009   0.21009   0.22391   0.22391
 Alpha virt. eigenvalues --    0.24808   0.24808   0.35867   0.35867   0.40631
 Alpha virt. eigenvalues --    0.44656   0.52184   0.52184   0.67084   1.00279
 Alpha virt. eigenvalues --    1.02204   1.02204   1.04047   1.04047   1.08142
 Alpha virt. eigenvalues --    1.08142   1.09834   1.09834   1.12616   1.14023
 Alpha virt. eigenvalues --    1.14023   1.14723   1.14723   1.17118   1.21720
 Alpha virt. eigenvalues --    1.21720   1.23652   1.23652   1.33484   1.34934
 Alpha virt. eigenvalues --    1.34934   1.38859   1.38859   1.57796   1.57796
 Alpha virt. eigenvalues --    1.75526   1.78930   1.99476   2.02399   2.02399
 Alpha virt. eigenvalues --    2.66056   2.96649   2.96649   3.09419   3.09538
 Alpha virt. eigenvalues --    3.09538   3.19056   3.19058   3.28507   3.28507
 Alpha virt. eigenvalues --    3.32186   3.32187   3.35777   3.38537   3.38537
 Alpha virt. eigenvalues --    3.43657   3.43657   3.52847   3.54300   3.54305
 Alpha virt. eigenvalues --    3.56623   3.56628   3.63338   3.63338   3.77864
 Alpha virt. eigenvalues --    3.77864   3.79431   3.80014   3.80014   3.81593
 Alpha virt. eigenvalues --    3.81904   3.81904   3.83849   3.83849   3.83928
 Alpha virt. eigenvalues --    3.83928   3.90954   3.90954   4.02907   4.02907
 Alpha virt. eigenvalues --    4.17230   4.17230   4.20210   4.20212   4.31730
 Alpha virt. eigenvalues --    4.86031   4.86031   4.99640   5.38441   7.99746
 Alpha virt. eigenvalues --    8.65270  10.52693  10.52693  10.53309  10.53309
 Alpha virt. eigenvalues --   10.58435  10.58435  10.66266  10.73562  10.73562
 Alpha virt. eigenvalues --   11.32578  28.24896  28.85786  41.62739  41.62739
 Alpha virt. eigenvalues --   41.63217  41.63217  41.65375  41.66868  97.76831
 Alpha virt. eigenvalues --   98.33573 524.65982 525.61659
          Condensed to atoms (all electrons):
               1          2
     1  Cl  16.882389   0.117611
     2  Cl   0.117611  16.882389
 Mulliken charges:
               1
     1  Cl  -0.000000
     2  Cl  -0.000000
 Sum of Mulliken charges =  -0.00000
 Mulliken charges with hydrogens summed into heavy atoms:
               1
     1  Cl  -0.000000
     2  Cl  -0.000000
 Electronic spatial extent (au):  <R**2>=            176.9173
 Charge=              0.0000 electrons
 Dipole moment (field-independent basis, Debye):
    X=             -0.0000    Y=              0.0000    Z=             -0.0000  Tot=              0.0000
 Quadrupole moment (field-independent basis, Debye-Ang):
   XX=            -25.4230   YY=            -25.4230   ZZ=            -22.2653
   XY=              0.0000   XZ=              0.0000   YZ=              0.0000
 Traceless Quadrupole moment (field-independent basis, Debye-Ang):
   XX=             -1.0526   YY=             -1.0526   ZZ=              2.1052
   XY=              0.0000   XZ=              0.0000   YZ=              0.0000
 Octapole moment (field-independent basis, Debye-Ang**2):
  XXX=             -0.0000  YYY=              0.0000  ZZZ=             -0.0000  XYY=             -0.0000
  XXY=              0.0000  XXZ=             -0.0000  XZZ=             -0.0000  YZZ=              0.0000
  YYZ=             -0.0000  XYZ=              0.0000
 Hexadecapole moment (field-independent basis, Debye-Ang**3):
 XXXX=            -28.9862 YYYY=            -28.9862 ZZZZ=           -153.9577 XXXY=              0.0000
 XXXZ=              0.0000 YYYX=              0.0000 YYYZ=              0.0000 ZZZX=              0.0000
 ZZZY=              0.0000 XXYY=             -9.6621 XXZZ=            -35.1775 YYZZ=            -35.1775
 XXYZ=              0.0000 YYXZ=              0.0000 ZZXY=             -0.0000
 N-N= 7.610819352694D+01 E-N=-2.340867750479D+03  KE= 9.189684122277D+02
 Symmetry AG   KE= 3.692082019746D+02
 Symmetry B1G  KE= 5.010388925591D-34
 Symmetry B2G  KE= 4.656579022825D+01
 Symmetry B3G  KE= 4.656579022825D+01
 Symmetry AU   KE= 2.677387216097D-33
 Symmetry B1U  KE= 3.652161461437D+02
 Symmetry B2U  KE= 4.570624182645D+01
 Symmetry B3U  KE= 4.570624182645D+01
 B after Tr=    -0.000000    0.000000    0.000000
         Rot=    1.000000    0.000000    0.000000    0.000000 Ang=   0.00 deg.
 Final structure in terms of initial Z-matrix:
 Cl
 Cl,1,B1
      Variables:
 B1=2.00940539
 Unable to Open any file for archive entry.
 1\1\GINC-CFF055\FOpt\RB3LYP\def2QZVPP\Cl2\EMMANOUS\13-Jul-2023\0\\#n B
 3LYP/def2QZVPP Opt\\Title\\0,1\Cl,0.,0.,0.0012973072\Cl,0.,0.,2.010702
 6928\\Version=ES64L-G16RevC.01\State=1-SGG\HF=-920.4526123\RMSD=5.916e
 -09\RMSF=1.411e-06\Dipole=0.,0.,0.\Quadrupole=-0.7825746,-0.7825746,1.
 5651492,0.,0.,0.\PG=D*H [C*(Cl1.Cl1)]\\@
 The archive entry for this job was punched.


 THE REAL VOYAGE OF DISCOVERY CONSISTS NOT IN SEEKING NEW LANDSCAPES 
 BUT IN HAVING NEW EYES.
                                                    -- MARCEL PROUST
 Job cpu time:       0 days  0 hours  2 minutes 53.3 seconds.
 Elapsed time:       0 days  0 hours  0 minutes 11.6 seconds.
 File lengths (MBytes):  RWF=     20 Int=      0 D2E=      0 Chk=      3 Scr=      1
 Normal termination of Gaussian 16 at Thu Jul 13 08:13:49 2023.
