 Entering Gaussian System, Link 0=g16
 Input=geom_opt_cl2.com
 Output=geom_opt_cl2.log
 Initial command:
 /gpfs01/home/coiron/apps/G16.C01/SANDYBRIDGE/g16/l1.exe "/bscratch/emmanous/3821478.pbs01/Gau-48261.inp" -scrdir="/bscratch/emmanous/3821478.pbs01/"
 Entering Link 1 = /gpfs01/home/coiron/apps/G16.C01/SANDYBRIDGE/g16/l1.exe PID=     48262.
  
 Copyright (c) 1988-2019, Gaussian, Inc.  All Rights Reserved.
  
 This is part of the Gaussian(R) 16 program.  It is based on
 the Gaussian(R) 09 system (copyright 2009, Gaussian, Inc.),
 the Gaussian(R) 03 system (copyright 2003, Gaussian, Inc.),
 the Gaussian(R) 98 system (copyright 1998, Gaussian, Inc.),
 the Gaussian(R) 94 system (copyright 1995, Gaussian, Inc.),
 the Gaussian 92(TM) system (copyright 1992, Gaussian, Inc.),
 the Gaussian 90(TM) system (copyright 1990, Gaussian, Inc.),
 the Gaussian 88(TM) system (copyright 1988, Gaussian, Inc.),
 the Gaussian 86(TM) system (copyright 1986, Carnegie Mellon
 University), and the Gaussian 82(TM) system (copyright 1983,
 Carnegie Mellon University). Gaussian is a federally registered
 trademark of Gaussian, Inc.
  
 This software contains proprietary and confidential information,
 including trade secrets, belonging to Gaussian, Inc.
  
 This software is provided under written license and may be
 used, copied, transmitted, or stored only in accord with that
 written license.
  
 The following legend is applicable only to US Government
 contracts under FAR:
  
                    RESTRICTED RIGHTS LEGEND
  
 Use, reproduction and disclosure by the US Government is
 subject to restrictions as set forth in subparagraphs (a)
 and (c) of the Commercial Computer Software - Restricted
 Rights clause in FAR 52.227-19.
  
 Gaussian, Inc.
 340 Quinnipiac St., Bldg. 40, Wallingford CT 06492
  
  
 ---------------------------------------------------------------
 Warning -- This program may not be used in any manner that
 competes with the business of Gaussian, Inc. or will provide
 assistance to any competitor of Gaussian, Inc.  The licensee
 of this program is prohibited from giving any competitor of
 Gaussian, Inc. access to this program.  By using this program,
 the user acknowledges that Gaussian, Inc. is engaged in the
 business of creating and licensing software in the field of
 computational chemistry and represents and warrants to the
 licensee that it is not a competitor of Gaussian, Inc. and that
 it will not use this program in any manner prohibited above.
 ---------------------------------------------------------------
  

 Cite this work as:
 Gaussian 16, Revision C.01,
 M. J. Frisch, G. W. Trucks, H. B. Schlegel, G. E. Scuseria, 
 M. A. Robb, J. R. Cheeseman, G. Scalmani, V. Barone, 
 G. A. Petersson, H. Nakatsuji, X. Li, M. Caricato, A. V. Marenich, 
 J. Bloino, B. G. Janesko, R. Gomperts, B. Mennucci, H. P. Hratchian, 
 J. V. Ortiz, A. F. Izmaylov, J. L. Sonnenberg, D. Williams-Young, 
 F. Ding, F. Lipparini, F. Egidi, J. Goings, B. Peng, A. Petrone, 
 T. Henderson, D. Ranasinghe, V. G. Zakrzewski, J. Gao, N. Rega, 
 G. Zheng, W. Liang, M. Hada, M. Ehara, K. Toyota, R. Fukuda, 
 J. Hasegawa, M. Ishida, T. Nakajima, Y. Honda, O. Kitao, H. Nakai, 
 T. Vreven, K. Throssell, J. A. Montgomery, Jr., J. E. Peralta, 
 F. Ogliaro, M. J. Bearpark, J. J. Heyd, E. N. Brothers, K. N. Kudin, 
 V. N. Staroverov, T. A. Keith, R. Kobayashi, J. Normand, 
 K. Raghavachari, A. P. Rendell, J. C. Burant, S. S. Iyengar, 
 J. Tomasi, M. Cossi, J. M. Millam, M. Klene, C. Adamo, R. Cammi, 
 J. W. Ochterski, R. L. Martin, K. Morokuma, O. Farkas, 
 J. B. Foresman, and D. J. Fox, Gaussian, Inc., Wallingford CT, 2019.
 
 ******************************************
 Gaussian 16:  ES64L-G16RevC.01  3-Jul-2019
                13-Jul-2023 
 ******************************************
 %nprocshared=16
 Will use up to   16 processors via shared memory.
 %mem=200gb
 --------------------------
 #n CCSD(T)/aug-cc-pVTZ Opt
 --------------------------

 Warning:  this job cannot use analytic gradients
           and so will do many energy evaluations.

 1/29=20000,38=1,172=1/1,14;
 2/12=2,17=6,18=5,29=3,40=1/2;
 3/5=16,6=1,7=10,11=9,25=1,30=1/1,2,3;
 4//1;
 5/5=2,38=5/2;
 8/6=4,9=120000,10=1/1,4;
 9/5=7,14=2/13;
 6/7=2,8=2,9=2,10=2/1;
 1//14(2);
 2/29=3/2;
 99//99;
 2/29=3/2;
 3/5=16,6=1,7=10,11=9,25=1,30=1/1,2,3;
 4/5=5,16=3,69=1/1;
 5/5=2,38=5/2;
 8/6=4,9=120000,10=1/1,4;
 9/5=7,14=2/13;
 1//14(-6);
 2/29=3/2;
 6/7=2,8=2,9=2,10=2/1;
 99/9=10/99;
 -----
 Title
 -----
 Symbolic Z-matrix:
 Charge =  0 Multiplicity = 1
 Cl
 Cl                   1    B1
       Variables:
  B1                    2.012                    
 

 NEF-NEF-NEF-NEF-NEF-NEF-NEF-NEF-NEF-NEF-NEF-NEF-NEF-NEF-NEF-NEF-NEF-NEF-
 NUMERICAL EIGENVECTOR FOLLOWING MINIMUM SEARCH
 INITIALIZATION PASS
                       ----------------------------
                       !    Initial Parameters    !
                       ! (Angstroms and Degrees)  !
 ----------------------                            ----------------------
 !      Name          Value   Derivative information (Atomic Units)     !
 ------------------------------------------------------------------------
 !       B1          2.012    estimate D2E/DX2                          !
 ------------------------------------------------------------------------


 ***************************************************
 ** O P T I M I Z A T I O N   P A R A M E T E R S **
 **  MAXIMUM NO. OF ITERATIONS      :          21 **
 **  MAXIMUM ALLOWED STEP LENGTH    :    0.300000 **
 ***************************************************



 NEF-NEF-NEF-NEF-NEF-NEF-NEF-NEF-NEF-NEF-NEF-NEF-NEF-NEF-NEF-NEF-NEF-NEF-
 ---------------------------------------------------------------------------------------------------
                            Z-MATRIX (ANGSTROMS AND DEGREES)
   CD    Cent   Atom    N1       Length/X        N2       Alpha/Y        N3        Beta/Z          J
 ---------------------------------------------------------------------------------------------------
      1      1  Cl
      2      2  Cl       1   2.012000(     1)
 ---------------------------------------------------------------------------------------------------
                         Z-Matrix orientation:                         
 ---------------------------------------------------------------------
 Center     Atomic      Atomic             Coordinates (Angstroms)
 Number     Number       Type             X           Y           Z
 ---------------------------------------------------------------------
      1         17           0        0.000000    0.000000    0.000000
      2         17           0        0.000000    0.000000    2.012000
 ---------------------------------------------------------------------
 Stoichiometry    Cl2
 Framework group  D*H[C*(Cl.Cl)]
 Deg. of freedom     1
 Full point group                 D*H     NOp   8
 Largest Abelian subgroup         D2H     NOp   8
 Largest concise Abelian subgroup C2      NOp   2
                         Standard orientation:                         
 ---------------------------------------------------------------------
 Center     Atomic      Atomic             Coordinates (Angstroms)
 Number     Number       Type             X           Y           Z
 ---------------------------------------------------------------------
      1         17           0        0.000000    0.000000    1.006000
      2         17           0        0.000000    0.000000   -1.006000
 ---------------------------------------------------------------------
 Rotational constants (GHZ):           0.0000000           7.1401915           7.1401915
 Standard basis: Aug-CC-pVTZ (5D, 7F)
 There are    26 symmetry adapted cartesian basis functions of AG  symmetry.
 There are     5 symmetry adapted cartesian basis functions of B1G symmetry.
 There are    14 symmetry adapted cartesian basis functions of B2G symmetry.
 There are    14 symmetry adapted cartesian basis functions of B3G symmetry.
 There are     5 symmetry adapted cartesian basis functions of AU  symmetry.
 There are    26 symmetry adapted cartesian basis functions of B1U symmetry.
 There are    14 symmetry adapted cartesian basis functions of B2U symmetry.
 There are    14 symmetry adapted cartesian basis functions of B3U symmetry.
 There are    21 symmetry adapted basis functions of AG  symmetry.
 There are     5 symmetry adapted basis functions of B1G symmetry.
 There are    12 symmetry adapted basis functions of B2G symmetry.
 There are    12 symmetry adapted basis functions of B3G symmetry.
 There are     5 symmetry adapted basis functions of AU  symmetry.
 There are    21 symmetry adapted basis functions of B1U symmetry.
 There are    12 symmetry adapted basis functions of B2U symmetry.
 There are    12 symmetry adapted basis functions of B3U symmetry.
   100 basis functions,   228 primitive gaussians,   118 cartesian basis functions
    17 alpha electrons       17 beta electrons
       nuclear repulsion energy        76.0100466978 Hartrees.
 NAtoms=    2 NActive=    2 NUniq=    1 SFac= 4.00D+00 NAtFMM=   60 NAOKFM=F Big=F
 Integral buffers will be    131072 words long.
 Raffenetti 1 integral format.
 Two-electron integral symmetry is turned on.
 One-electron integrals computed using PRISM.
 NBasis=   100 RedAO= T EigKep=  4.86D-04  NBF=    21     5    12    12     5    21    12    12
 NBsUse=   100 1.00D-06 EigRej= -1.00D+00 NBFU=    21     5    12    12     5    21    12    12
 ExpMin= 4.19D-02 ExpMax= 4.56D+05 ExpMxC= 1.44D+03 IAcc=3 IRadAn=         5 AccDes= 0.00D+00
 Harris functional with IExCor=  205 and IRadAn=       5 diagonalized for initial guess.
 HarFok:  IExCor=  205 AccDes= 0.00D+00 IRadAn=         5 IDoV= 1 UseB2=F ITyADJ=14
 ICtDFT=  3500011 ScaDFX=  1.000000  1.000000  1.000000  1.000000
 FoFCou: FMM=F IPFlag=           0 FMFlag=      100000 FMFlg1=           0
         NFxFlg=           0 DoJE=T BraDBF=F KetDBF=T FulRan=T
         wScrn=  0.000000 ICntrl=       500 IOpCl=  0 I1Cent=   200000004 NGrid=           0
         NMat0=    1 NMatS0=      1 NMatT0=    0 NMatD0=    1 NMtDS0=    0 NMtDT0=    0
 Petite list used in FoFCou.
 Initial guess orbital symmetries:
       Occupied  (SGU) (SGG) (SGU) (SGG) (SGG) (SGU) (PIU) (PIU)
                 (PIG) (PIG) (SGG) (SGU) (SGG) (PIU) (PIU) (PIG)
                 (PIG)
       Virtual   (SGU) (SGG) (SGU) (PIU) (PIU) (SGG) (PIG) (PIG)
                 (DLTG) (DLTG) (SGU) (PIU) (PIU) (DLTU) (DLTU)
                 (SGG) (SGU) (PIG) (PIG) (PIU) (PIU) (PIG) (PIG)
                 (SGU) (SGG) (PIU) (PIU) (SGG) (DLTG) (DLTG) (SGG)
                 (DLTU) (DLTU) (PIG) (PIG) (SGU) (DLTG) (DLTG)
                 (PHIU) (PHIU) (PHIG) (PHIG) (PIU) (PIU) (SGU)
                 (DLTU) (DLTU) (SGG) (PIG) (PIG) (SGU) (DLTG) (DLTG)
                 (SGU) (PIU) (PIU) (DLTU) (DLTU) (PIG) (PIG) (PIU)
                 (PIU) (SGG) (SGG) (PIG) (PIG) (PHIU) (PHIU) (SGG)
                 (PIU) (PIU) (DLTG) (DLTG) (PHIG) (PHIG) (DLTU)
                 (DLTU) (SGU) (PIG) (PIG) (SGU) (SGG) (SGU)
 The electronic state of the initial guess is 1-SGG.
 Keep R1 ints in memory in symmetry-blocked form, NReq=20674872.
 Requested convergence on RMS density matrix=1.00D-08 within 128 cycles.
 Requested convergence on MAX density matrix=1.00D-06.
 Requested convergence on             energy=1.00D-06.
 No special actions if energy rises.
 SCF Done:  E(RHF) =  -918.999732056     A.U. after    9 cycles
            NFock=  9  Conv=0.48D-08     -V/T= 2.0001
 ExpMin= 4.19D-02 ExpMax= 4.56D+05 ExpMxC= 1.44D+03 IAcc=3 IRadAn=         5 AccDes= 0.00D+00
 HarFok:  IExCor=  205 AccDes= 0.00D+00 IRadAn=         5 IDoV=-2 UseB2=F ITyADJ=14
 ICtDFT= 12500011 ScaDFX=  1.000000  1.000000  1.000000  1.000000
 Range of M.O.s used for correlation:    11   100
 NBasis=   100 NAE=    17 NBE=    17 NFC=    10 NFV=     0
 NROrb=     90 NOA=     7 NOB=     7 NVA=    83 NVB=    83

 **** Warning!!: The largest alpha MO coefficient is  0.11676007D+02

 Semi-Direct transformation.
 ModeAB=           4 MOrb=             7 LenV=   26843111494
 LASXX=       305061 LTotXX=      305061 LenRXX=      622071
 LTotAB=      317010 MaxLAS=     2416050 LenRXY=           0
 NonZer=      927132 LenScr=     1966080 LnRSAI=     2416050
 LnScr1=     4325376 LExtra=           0 Total=      9329577
 MaxDsk=          -1 SrtSym=           T ITran=            4
 JobTyp=0 Pass  1:  I=   1 to   7.
 (rs|ai) integrals will be sorted in core.
 Spin components of T(2) and E(2):
     alpha-alpha T2 =       0.1875089393D-01 E2=     -0.4753761432D-01
     alpha-beta  T2 =       0.1058524406D+00 E2=     -0.2922039087D+00
     beta-beta   T2 =       0.1875089393D-01 E2=     -0.4753761432D-01
 ANorm=    0.1069277433D+01
 E2 =    -0.3872791373D+00 EUMP2 =    -0.91938701119377D+03
 Keep R2 and R3 ints in memory in symmetry-blocked form, NReq=20678820.
 CIDS: In Core Option IDoMem=           1.
 Iterations=  50 Convergence= 0.100D-06
 Produce multiple copies of IABC intergrals
 Iteration Nr.   1
 **********************
 DD1Dir will call FoFMem   1 times, MxPair=        56
 NAB=    28 NAA=     0 NBB=     0.
 MP4(R+Q)=  0.12466324D-01
 E3=       -0.33373227D-01        EUMP3=      -0.91942038442D+03
 E4(DQ)=    0.26565358D-02        UMP4(DQ)=   -0.91941772789D+03
 E4(SDQ)=   0.91487597D-03        UMP4(SDQ)=  -0.91941946955D+03
 DE(Corr)= -0.40817039     E(Corr)=     -919.40790245    
 NORM(A)=   0.10777321D+01
 Iteration Nr.   2
 **********************
 DD1Dir will call FoFMem   1 times, MxPair=        56
 NAB=    28 NAA=     0 NBB=     0.
 DE(Corr)= -0.41704587     E(CORR)=     -919.41677793     Delta=-8.88D-03
 NORM(A)=   0.10825599D+01
 Iteration Nr.   3
 **********************
 DD1Dir will call FoFMem   1 times, MxPair=        56
 NAB=    28 NAA=     0 NBB=     0.
 DE(Corr)= -0.41832196     E(CORR)=     -919.41805401     Delta=-1.28D-03
 NORM(A)=   0.10832039D+01
 Iteration Nr.   4
 **********************
 DD1Dir will call FoFMem   1 times, MxPair=        56
 NAB=    28 NAA=     0 NBB=     0.
 DE(Corr)= -0.41885757     E(CORR)=     -919.41858963     Delta=-5.36D-04
 NORM(A)=   0.10834362D+01
 Iteration Nr.   5
 **********************
 DD1Dir will call FoFMem   1 times, MxPair=        56
 NAB=    28 NAA=     0 NBB=     0.
 DE(Corr)= -0.41890281     E(CORR)=     -919.41863487     Delta=-4.52D-05
 NORM(A)=   0.10834751D+01
 Iteration Nr.   6
 **********************
 DD1Dir will call FoFMem   1 times, MxPair=        56
 NAB=    28 NAA=     0 NBB=     0.
 DE(Corr)= -0.41890627     E(CORR)=     -919.41863832     Delta=-3.46D-06
 NORM(A)=   0.10834741D+01
 Iteration Nr.   7
 **********************
 DD1Dir will call FoFMem   1 times, MxPair=        56
 NAB=    28 NAA=     0 NBB=     0.
 DE(Corr)= -0.41890601     E(CORR)=     -919.41863807     Delta= 2.55D-07
 NORM(A)=   0.10834765D+01
 Iteration Nr.   8
 **********************
 DD1Dir will call FoFMem   1 times, MxPair=        56
 NAB=    28 NAA=     0 NBB=     0.
 DE(Corr)= -0.41890562     E(CORR)=     -919.41863768     Delta= 3.90D-07
 NORM(A)=   0.10834764D+01
 Iteration Nr.   9
 **********************
 DD1Dir will call FoFMem   1 times, MxPair=        56
 NAB=    28 NAA=     0 NBB=     0.
 DE(Corr)= -0.41890605     E(CORR)=     -919.41863810     Delta=-4.23D-07
 NORM(A)=   0.10834767D+01
 Iteration Nr.  10
 **********************
 DD1Dir will call FoFMem   1 times, MxPair=        56
 NAB=    28 NAA=     0 NBB=     0.
 DE(Corr)= -0.41890607     E(CORR)=     -919.41863813     Delta=-2.56D-08
 NORM(A)=   0.10834768D+01
 Wavefunction amplitudes converged. E(Corr)=     -919.41863813    
 Largest amplitude= 7.08D-02
 Time for triples=     1546.24 seconds.
 T4(CCSD)= -0.19293465D-01
 T5(CCSD)=  0.21040771D-03
 CCSD(T)= -0.91943772118D+03
 Discarding MO integrals.

 **********************************************************************

            Population analysis using the SCF Density.

 **********************************************************************

 Orbital symmetries:
       Occupied  (SGG) (SGU) (SGG) (SGU) (SGG) (SGU) (PIU) (PIU)
                 (PIG) (PIG) (SGG) (SGU) (SGG) (PIU) (PIU) (PIG)
                 (PIG)
       Virtual   (SGU) (SGU) (SGG) (PIU) (PIU) (PIG) (PIG) (SGG)
                 (SGU) (DLTG) (DLTG) (PIU) (PIU) (SGG) (DLTU) (DLTU)
                 (SGU) (PIG) (PIG) (PIU) (PIU) (SGU) (PIG) (PIG)
                 (SGG) (PIU) (PIU) (SGG) (DLTG) (DLTG) (SGG) (DLTU)
                 (DLTU) (PIG) (PIG) (DLTG) (DLTG) (PHIU) (PHIU)
                 (SGU) (PHIG) (PHIG) (PIU) (PIU) (SGU) (DLTU) (DLTU)
                 (SGG) (PIG) (PIG) (SGU) (SGU) (DLTG) (DLTG) (PIU)
                 (PIU) (DLTU) (DLTU) (PIG) (PIG) (PIU) (PIU) (SGG)
                 (SGG) (PIG) (PIG) (SGG) (PIU) (PIU) (DLTG) (DLTG)
                 (PHIU) (PHIU) (PHIG) (PHIG) (DLTU) (DLTU) (SGU)
                 (PIG) (PIG) (SGU) (SGG) (SGU)
 The electronic state is 1-SGG.
 Alpha  occ. eigenvalues -- -104.90206-104.90205 -10.62247 -10.62232  -8.08948
 Alpha  occ. eigenvalues --   -8.08927  -8.08636  -8.08636  -8.08636  -8.08636
 Alpha  occ. eigenvalues --   -1.21310  -1.01809  -0.59347  -0.56739  -0.56739
 Alpha  occ. eigenvalues --   -0.44676  -0.44676
 Alpha virt. eigenvalues --    0.01907   0.09777   0.10790   0.11144   0.11144
 Alpha virt. eigenvalues --    0.13907   0.13907   0.14026   0.25253   0.29494
 Alpha virt. eigenvalues --    0.29494   0.33365   0.33365   0.40427   0.41326
 Alpha virt. eigenvalues --    0.41326   0.49489   0.51022   0.51022   0.60799
 Alpha virt. eigenvalues --    0.60799   0.69602   0.72055   0.72055   0.75813
 Alpha virt. eigenvalues --    0.80288   0.80288   0.82912   0.86544   0.86544
 Alpha virt. eigenvalues --    0.88954   0.93840   0.93840   1.02367   1.02367
 Alpha virt. eigenvalues --    1.10329   1.10329   1.10481   1.10481   1.13017
 Alpha virt. eigenvalues --    1.25155   1.25155   1.38734   1.38734   1.39050
 Alpha virt. eigenvalues --    1.47876   1.47876   1.70597   1.71697   1.71697
 Alpha virt. eigenvalues --    1.94225   2.44193   2.45636   2.45636   2.47672
 Alpha virt. eigenvalues --    2.47672   2.53767   2.53767   2.59990   2.59990
 Alpha virt. eigenvalues --    2.63200   2.63200   2.64048   2.86688   2.89951
 Alpha virt. eigenvalues --    2.89951   2.96041   2.96552   2.96552   3.00557
 Alpha virt. eigenvalues --    3.00557   3.00770   3.00770   3.06531   3.06531
 Alpha virt. eigenvalues --    3.14201   3.14201   3.25404   3.36246   3.36246
 Alpha virt. eigenvalues --    4.30835   5.46352   6.89591
          Condensed to atoms (all electrons):
               1          2
     1  Cl  16.949084   0.050916
     2  Cl   0.050916  16.949084
 Mulliken charges:
               1
     1  Cl   0.000000
     2  Cl   0.000000
 Sum of Mulliken charges =   0.00000
 Mulliken charges with hydrogens summed into heavy atoms:
               1
     1  Cl   0.000000
     2  Cl   0.000000
 Electronic spatial extent (au):  <R**2>=            177.4620
 Charge=              0.0000 electrons
 Dipole moment (field-independent basis, Debye):
    X=              0.0000    Y=              0.0000    Z=              0.0000  Tot=              0.0000
 Quadrupole moment (field-independent basis, Debye-Ang):
   XX=            -25.5431   YY=            -25.5431   ZZ=            -22.3317
   XY=              0.0000   XZ=              0.0000   YZ=              0.0000
 Traceless Quadrupole moment (field-independent basis, Debye-Ang):
   XX=             -1.0705   YY=             -1.0705   ZZ=              2.1409
   XY=              0.0000   XZ=              0.0000   YZ=              0.0000
 Octapole moment (field-independent basis, Debye-Ang**2):
  XXX=             -0.0000  YYY=             -0.0000  ZZZ=              0.0000  XYY=             -0.0000
  XXY=             -0.0000  XXZ=             -0.0000  XZZ=             -0.0000  YZZ=              0.0000
  YYZ=              0.0000  XYZ=              0.0000
 Hexadecapole moment (field-independent basis, Debye-Ang**3):
 XXXX=            -28.6645 YYYY=            -28.6645 ZZZZ=           -153.4546 XXXY=              0.0000
 XXXZ=              0.0000 YYYX=              0.0000 YYYZ=              0.0000 ZZZX=              0.0000
 ZZZY=              0.0000 XXYY=             -9.5548 XXZZ=            -35.4668 YYZZ=            -35.4668
 XXYZ=              0.0000 YYXZ=              0.0000 ZZXY=             -0.0000
 N-N= 7.601004669775D+01 E-N=-2.340046078123D+03  KE= 9.188786058776D+02
 Symmetry AG   KE= 3.693598520040D+02
 Symmetry B1G  KE= 5.598295484889D-34
 Symmetry B2G  KE= 4.634176702327D+01
 Symmetry B3G  KE= 4.634176702327D+01
 Symmetry AU   KE= 4.203153692823D-33
 Symmetry B1U  KE= 3.656572979734D+02
 Symmetry B2U  KE= 4.558896092676D+01
 Symmetry B3U  KE= 4.558896092676D+01

 NEF-NEF-NEF-NEF-NEF-NEF-NEF-NEF-NEF-NEF-NEF-NEF-NEF-NEF-NEF-NEF-NEF-NEF-
 NUMERICAL EIGENVECTOR FOLLOWING MINIMUM SEARCH
 NUMERICALLY ESTIMATING GRADIENTS
 ITERATION   0 VARIABLE  1 STEP  1

 NEF-NEF-NEF-NEF-NEF-NEF-NEF-NEF-NEF-NEF-NEF-NEF-NEF-NEF-NEF-NEF-NEF-NEF-
 ---------------------------------------------------------------------------------------------------
                            Z-MATRIX (ANGSTROMS AND DEGREES)
   CD    Cent   Atom    N1       Length/X        N2       Alpha/Y        N3        Beta/Z          J
 ---------------------------------------------------------------------------------------------------
      1      1  Cl
      2      2  Cl       1   2.012110(     1)
 ---------------------------------------------------------------------------------------------------
                         Z-Matrix orientation:                         
 ---------------------------------------------------------------------
 Center     Atomic      Atomic             Coordinates (Angstroms)
 Number     Number       Type             X           Y           Z
 ---------------------------------------------------------------------
      1         17           0        0.000000    0.000000    0.000000
      2         17           0        0.000000    0.000000    2.012110
 ---------------------------------------------------------------------
 Stoichiometry    Cl2
 Framework group  D*H[C*(Cl.Cl)]
 Deg. of freedom     1
 Full point group                 D*H     NOp   8
 Largest Abelian subgroup         D2H     NOp   8
 Largest concise Abelian subgroup C2      NOp   2
                         Standard orientation:                         
 ---------------------------------------------------------------------
 Center     Atomic      Atomic             Coordinates (Angstroms)
 Number     Number       Type             X           Y           Z
 ---------------------------------------------------------------------
      1         17           0        0.000000    0.000000    1.006055
      2         17           0        0.000000    0.000000   -1.006055
 ---------------------------------------------------------------------
 Rotational constants (GHZ):           0.0000000           7.1394086           7.1394086
 Standard basis: Aug-CC-pVTZ (5D, 7F)
 There are    26 symmetry adapted cartesian basis functions of AG  symmetry.
 There are     5 symmetry adapted cartesian basis functions of B1G symmetry.
 There are    14 symmetry adapted cartesian basis functions of B2G symmetry.
 There are    14 symmetry adapted cartesian basis functions of B3G symmetry.
 There are     5 symmetry adapted cartesian basis functions of AU  symmetry.
 There are    26 symmetry adapted cartesian basis functions of B1U symmetry.
 There are    14 symmetry adapted cartesian basis functions of B2U symmetry.
 There are    14 symmetry adapted cartesian basis functions of B3U symmetry.
 There are    21 symmetry adapted basis functions of AG  symmetry.
 There are     5 symmetry adapted basis functions of B1G symmetry.
 There are    12 symmetry adapted basis functions of B2G symmetry.
 There are    12 symmetry adapted basis functions of B3G symmetry.
 There are     5 symmetry adapted basis functions of AU  symmetry.
 There are    21 symmetry adapted basis functions of B1U symmetry.
 There are    12 symmetry adapted basis functions of B2U symmetry.
 There are    12 symmetry adapted basis functions of B3U symmetry.
   100 basis functions,   228 primitive gaussians,   118 cartesian basis functions
    17 alpha electrons       17 beta electrons
       nuclear repulsion energy        76.0058794134 Hartrees.
 NAtoms=    2 NActive=    2 NUniq=    1 SFac= 4.00D+00 NAtFMM=   60 NAOKFM=F Big=F
 Integral buffers will be    131072 words long.
 Raffenetti 1 integral format.
 Two-electron integral symmetry is turned on.
 One-electron integrals computed using PRISM.
 NBasis=   100 RedAO= T EigKep=  4.86D-04  NBF=    21     5    12    12     5    21    12    12
 NBsUse=   100 1.00D-06 EigRej= -1.00D+00 NBFU=    21     5    12    12     5    21    12    12
 Initial guess from the checkpoint file:  "/bscratch/emmanous/3821478.pbs01/Gau-48262.chk"
 B after Tr=     0.000000    0.000000    0.000000
         Rot=    1.000000    0.000000    0.000000    0.000000 Ang=   0.00 deg.
 Initial guess orbital symmetries:
       Occupied  (SGG) (SGU) (SGG) (SGU) (SGG) (SGU) (PIU) (PIU)
                 (PIG) (PIG) (SGG) (SGU) (SGG) (PIU) (PIU) (PIG)
                 (PIG)
       Virtual   (SGU) (SGU) (SGG) (PIU) (PIU) (PIG) (PIG) (SGG)
                 (SGU) (DLTG) (DLTG) (PIU) (PIU) (SGG) (DLTU) (DLTU)
                 (SGU) (PIG) (PIG) (PIU) (PIU) (SGU) (PIG) (PIG)
                 (SGG) (PIU) (PIU) (SGG) (DLTG) (DLTG) (SGG) (DLTU)
                 (DLTU) (PIG) (PIG) (DLTG) (DLTG) (PHIU) (PHIU)
                 (SGU) (PHIG) (PHIG) (PIU) (PIU) (SGU) (DLTU) (DLTU)
                 (SGG) (PIG) (PIG) (SGU) (SGU) (DLTG) (DLTG) (PIU)
                 (PIU) (DLTU) (DLTU) (PIG) (PIG) (PIU) (PIU) (SGG)
                 (SGG) (PIG) (PIG) (SGG) (PIU) (PIU) (DLTG) (DLTG)
                 (PHIU) (PHIU) (PHIG) (PHIG) (DLTU) (DLTU) (SGU)
                 (PIG) (PIG) (SGU) (SGG) (SGU)
 ExpMin= 4.19D-02 ExpMax= 4.56D+05 ExpMxC= 1.44D+03 IAcc=3 IRadAn=         5 AccDes= 0.00D+00
 Harris functional with IExCor=  205 and IRadAn=       5 diagonalized for initial guess.
 HarFok:  IExCor=  205 AccDes= 0.00D+00 IRadAn=         5 IDoV= 1 UseB2=F ITyADJ=14
 ICtDFT=  3500011 ScaDFX=  1.000000  1.000000  1.000000  1.000000
 FoFCou: FMM=F IPFlag=           0 FMFlag=      100000 FMFlg1=           0
         NFxFlg=           0 DoJE=T BraDBF=F KetDBF=T FulRan=T
         wScrn=  0.000000 ICntrl=       500 IOpCl=  0 I1Cent=   200000004 NGrid=           0
         NMat0=    1 NMatS0=      1 NMatT0=    0 NMatD0=    1 NMtDS0=    0 NMtDT0=    0
 Petite list used in FoFCou.
 Keep R1 ints in memory in symmetry-blocked form, NReq=20674872.
 Requested convergence on RMS density matrix=1.00D-08 within 128 cycles.
 Requested convergence on MAX density matrix=1.00D-06.
 Requested convergence on             energy=1.00D-06.
 No special actions if energy rises.
 SCF Done:  E(RHF) =  -918.999729487     A.U. after    5 cycles
            NFock=  5  Conv=0.10D-08     -V/T= 2.0001
 ExpMin= 4.19D-02 ExpMax= 4.56D+05 ExpMxC= 1.44D+03 IAcc=3 IRadAn=         5 AccDes= 0.00D+00
 HarFok:  IExCor=  205 AccDes= 0.00D+00 IRadAn=         5 IDoV=-2 UseB2=F ITyADJ=14
 ICtDFT= 12500011 ScaDFX=  1.000000  1.000000  1.000000  1.000000
 Range of M.O.s used for correlation:    11   100
 NBasis=   100 NAE=    17 NBE=    17 NFC=    10 NFV=     0
 NROrb=     90 NOA=     7 NOB=     7 NVA=    83 NVB=    83

 **** Warning!!: The largest alpha MO coefficient is  0.11674622D+02

 Semi-Direct transformation.
 ModeAB=           4 MOrb=             7 LenV=   26843111494
 LASXX=       305061 LTotXX=      305061 LenRXX=      622071
 LTotAB=      317010 MaxLAS=     2416050 LenRXY=           0
 NonZer=      927132 LenScr=     1966080 LnRSAI=     2416050
 LnScr1=     4325376 LExtra=           0 Total=      9329577
 MaxDsk=          -1 SrtSym=           T ITran=            4
 JobTyp=0 Pass  1:  I=   1 to   7.
 (rs|ai) integrals will be sorted in core.
 Spin components of T(2) and E(2):
     alpha-alpha T2 =       0.1875107920D-01 E2=     -0.4753725763D-01
     alpha-beta  T2 =       0.1058561847D+00 E2=     -0.2922060800D+00
     beta-beta   T2 =       0.1875107920D-01 E2=     -0.4753725763D-01
 ANorm=    0.1069279357D+01
 E2 =    -0.3872805953D+00 EUMP2 =    -0.91938701008189D+03
 Keep R2 and R3 ints in memory in symmetry-blocked form, NReq=20678820.
 CIDS: In Core Option IDoMem=           1.
 Iterations=  50 Convergence= 0.100D-06
 Produce multiple copies of IABC intergrals
 Iteration Nr.   1
 **********************
 DD1Dir will call FoFMem   1 times, MxPair=        56
 NAB=    28 NAA=     0 NBB=     0.
 MP4(R+Q)=  0.12466999D-01
 E3=       -0.33374216D-01        EUMP3=      -0.91942038430D+03
 E4(DQ)=    0.26566831D-02        UMP4(DQ)=   -0.91941772762D+03
 E4(SDQ)=   0.91485572D-03        UMP4(SDQ)=  -0.91941946944D+03
 DE(Corr)= -0.40817216     E(Corr)=     -919.40790165    
 NORM(A)=   0.10777345D+01
 Iteration Nr.   2
 **********************
 DD1Dir will call FoFMem   1 times, MxPair=        56
 NAB=    28 NAA=     0 NBB=     0.
 DE(Corr)= -0.41704812     E(CORR)=     -919.41677761     Delta=-8.88D-03
 NORM(A)=   0.10825629D+01
 Iteration Nr.   3
 **********************
 DD1Dir will call FoFMem   1 times, MxPair=        56
 NAB=    28 NAA=     0 NBB=     0.
 DE(Corr)= -0.41832428     E(CORR)=     -919.41805376     Delta=-1.28D-03
 NORM(A)=   0.10832071D+01
 Iteration Nr.   4
 **********************
 DD1Dir will call FoFMem   1 times, MxPair=        56
 NAB=    28 NAA=     0 NBB=     0.
 DE(Corr)= -0.41885997     E(CORR)=     -919.41858946     Delta=-5.36D-04
 NORM(A)=   0.10834394D+01
 Iteration Nr.   5
 **********************
 DD1Dir will call FoFMem   1 times, MxPair=        56
 NAB=    28 NAA=     0 NBB=     0.
 DE(Corr)= -0.41890522     E(CORR)=     -919.41863471     Delta=-4.52D-05
 NORM(A)=   0.10834783D+01
 Iteration Nr.   6
 **********************
 DD1Dir will call FoFMem   1 times, MxPair=        56
 NAB=    28 NAA=     0 NBB=     0.
 DE(Corr)= -0.41890868     E(CORR)=     -919.41863816     Delta=-3.46D-06
 NORM(A)=   0.10834773D+01
 Iteration Nr.   7
 **********************
 DD1Dir will call FoFMem   1 times, MxPair=        56
 NAB=    28 NAA=     0 NBB=     0.
 DE(Corr)= -0.41890842     E(CORR)=     -919.41863791     Delta= 2.55D-07
 NORM(A)=   0.10834797D+01
 Iteration Nr.   8
 **********************
 DD1Dir will call FoFMem   1 times, MxPair=        56
 NAB=    28 NAA=     0 NBB=     0.
 DE(Corr)= -0.41890803     E(CORR)=     -919.41863752     Delta= 3.90D-07
 NORM(A)=   0.10834796D+01
 Iteration Nr.   9
 **********************
 DD1Dir will call FoFMem   1 times, MxPair=        56
 NAB=    28 NAA=     0 NBB=     0.
 DE(Corr)= -0.41890846     E(CORR)=     -919.41863794     Delta=-4.23D-07
 NORM(A)=   0.10834799D+01
 Iteration Nr.  10
 **********************
 DD1Dir will call FoFMem   1 times, MxPair=        56
 NAB=    28 NAA=     0 NBB=     0.
 DE(Corr)= -0.41890848     E(CORR)=     -919.41863797     Delta=-2.56D-08
 NORM(A)=   0.10834800D+01
 Wavefunction amplitudes converged. E(Corr)=     -919.41863797    
 Largest amplitude= 7.08D-02
 Time for triples=     1493.06 seconds.
 T4(CCSD)= -0.19294216D-01
 T5(CCSD)=  0.21042718D-03
 CCSD(T)= -0.91943772176D+03
 Discarding MO integrals.

 NEF-NEF-NEF-NEF-NEF-NEF-NEF-NEF-NEF-NEF-NEF-NEF-NEF-NEF-NEF-NEF-NEF-NEF-
 NUMERICAL EIGENVECTOR FOLLOWING MINIMUM SEARCH
 NUMERICALLY ESTIMATING GRADIENTS
 ITERATION   0 VARIABLE  1 STEP  2

 NEF-NEF-NEF-NEF-NEF-NEF-NEF-NEF-NEF-NEF-NEF-NEF-NEF-NEF-NEF-NEF-NEF-NEF-
 ---------------------------------------------------------------------------------------------------
                            Z-MATRIX (ANGSTROMS AND DEGREES)
   CD    Cent   Atom    N1       Length/X        N2       Alpha/Y        N3        Beta/Z          J
 ---------------------------------------------------------------------------------------------------
      1      1  Cl
      2      2  Cl       1   2.011890(     1)
 ---------------------------------------------------------------------------------------------------
                         Z-Matrix orientation:                         
 ---------------------------------------------------------------------
 Center     Atomic      Atomic             Coordinates (Angstroms)
 Number     Number       Type             X           Y           Z
 ---------------------------------------------------------------------
      1         17           0        0.000000    0.000000    0.000000
      2         17           0        0.000000    0.000000    2.011890
 ---------------------------------------------------------------------
 Stoichiometry    Cl2
 Framework group  D*H[C*(Cl.Cl)]
 Deg. of freedom     1
 Full point group                 D*H     NOp   8
 Largest Abelian subgroup         D2H     NOp   8
 Largest concise Abelian subgroup C2      NOp   2
                         Standard orientation:                         
 ---------------------------------------------------------------------
 Center     Atomic      Atomic             Coordinates (Angstroms)
 Number     Number       Type             X           Y           Z
 ---------------------------------------------------------------------
      1         17           0        0.000000    0.000000    1.005945
      2         17           0        0.000000    0.000000   -1.005945
 ---------------------------------------------------------------------
 Rotational constants (GHZ):           0.0000000           7.1409745           7.1409745
 Standard basis: Aug-CC-pVTZ (5D, 7F)
 There are    26 symmetry adapted cartesian basis functions of AG  symmetry.
 There are     5 symmetry adapted cartesian basis functions of B1G symmetry.
 There are    14 symmetry adapted cartesian basis functions of B2G symmetry.
 There are    14 symmetry adapted cartesian basis functions of B3G symmetry.
 There are     5 symmetry adapted cartesian basis functions of AU  symmetry.
 There are    26 symmetry adapted cartesian basis functions of B1U symmetry.
 There are    14 symmetry adapted cartesian basis functions of B2U symmetry.
 There are    14 symmetry adapted cartesian basis functions of B3U symmetry.
 There are    21 symmetry adapted basis functions of AG  symmetry.
 There are     5 symmetry adapted basis functions of B1G symmetry.
 There are    12 symmetry adapted basis functions of B2G symmetry.
 There are    12 symmetry adapted basis functions of B3G symmetry.
 There are     5 symmetry adapted basis functions of AU  symmetry.
 There are    21 symmetry adapted basis functions of B1U symmetry.
 There are    12 symmetry adapted basis functions of B2U symmetry.
 There are    12 symmetry adapted basis functions of B3U symmetry.
   100 basis functions,   228 primitive gaussians,   118 cartesian basis functions
    17 alpha electrons       17 beta electrons
       nuclear repulsion energy        76.0142144391 Hartrees.
 NAtoms=    2 NActive=    2 NUniq=    1 SFac= 4.00D+00 NAtFMM=   60 NAOKFM=F Big=F
 Integral buffers will be    131072 words long.
 Raffenetti 1 integral format.
 Two-electron integral symmetry is turned on.
 One-electron integrals computed using PRISM.
 NBasis=   100 RedAO= T EigKep=  4.85D-04  NBF=    21     5    12    12     5    21    12    12
 NBsUse=   100 1.00D-06 EigRej= -1.00D+00 NBFU=    21     5    12    12     5    21    12    12
 Initial guess from the checkpoint file:  "/bscratch/emmanous/3821478.pbs01/Gau-48262.chk"
 B after Tr=    -0.000000    0.000000    0.000000
         Rot=    1.000000    0.000000    0.000000    0.000000 Ang=   0.00 deg.
 Initial guess orbital symmetries:
       Occupied  (SGG) (SGU) (SGG) (SGU) (SGG) (SGU) (PIU) (PIU)
                 (PIG) (PIG) (SGG) (SGU) (SGG) (PIU) (PIU) (PIG)
                 (PIG)
       Virtual   (SGU) (SGU) (SGG) (PIU) (PIU) (PIG) (PIG) (SGG)
                 (SGU) (DLTG) (DLTG) (PIU) (PIU) (SGG) (DLTU) (DLTU)
                 (SGU) (PIG) (PIG) (PIU) (PIU) (SGU) (PIG) (PIG)
                 (SGG) (PIU) (PIU) (SGG) (DLTG) (DLTG) (SGG) (DLTU)
                 (DLTU) (PIG) (PIG) (DLTG) (DLTG) (PHIU) (PHIU)
                 (SGU) (PHIG) (PHIG) (PIU) (PIU) (SGU) (DLTU) (DLTU)
                 (SGG) (PIG) (PIG) (SGU) (SGU) (DLTG) (DLTG) (PIU)
                 (PIU) (DLTU) (DLTU) (PIG) (PIG) (PIU) (PIU) (SGG)
                 (SGG) (PIG) (PIG) (SGG) (PIU) (PIU) (DLTG) (DLTG)
                 (PHIU) (PHIU) (PHIG) (PHIG) (DLTU) (DLTU) (SGU)
                 (PIG) (PIG) (SGU) (SGG) (SGU)
 ExpMin= 4.19D-02 ExpMax= 4.56D+05 ExpMxC= 1.44D+03 IAcc=3 IRadAn=         5 AccDes= 0.00D+00
 Harris functional with IExCor=  205 and IRadAn=       5 diagonalized for initial guess.
 HarFok:  IExCor=  205 AccDes= 0.00D+00 IRadAn=         5 IDoV= 1 UseB2=F ITyADJ=14
 ICtDFT=  3500011 ScaDFX=  1.000000  1.000000  1.000000  1.000000
 FoFCou: FMM=F IPFlag=           0 FMFlag=      100000 FMFlg1=           0
         NFxFlg=           0 DoJE=T BraDBF=F KetDBF=T FulRan=T
         wScrn=  0.000000 ICntrl=       500 IOpCl=  0 I1Cent=   200000004 NGrid=           0
         NMat0=    1 NMatS0=      1 NMatT0=    0 NMatD0=    1 NMtDS0=    0 NMtDT0=    0
 Petite list used in FoFCou.
 Keep R1 ints in memory in symmetry-blocked form, NReq=20674872.
 Requested convergence on RMS density matrix=1.00D-08 within 128 cycles.
 Requested convergence on MAX density matrix=1.00D-06.
 Requested convergence on             energy=1.00D-06.
 No special actions if energy rises.
 SCF Done:  E(RHF) =  -918.999734617     A.U. after    5 cycles
            NFock=  5  Conv=0.20D-08     -V/T= 2.0001
 ExpMin= 4.19D-02 ExpMax= 4.56D+05 ExpMxC= 1.44D+03 IAcc=3 IRadAn=         5 AccDes= 0.00D+00
 HarFok:  IExCor=  205 AccDes= 0.00D+00 IRadAn=         5 IDoV=-2 UseB2=F ITyADJ=14
 ICtDFT= 12500011 ScaDFX=  1.000000  1.000000  1.000000  1.000000
 Range of M.O.s used for correlation:    11   100
 NBasis=   100 NAE=    17 NBE=    17 NFC=    10 NFV=     0
 NROrb=     90 NOA=     7 NOB=     7 NVA=    83 NVB=    83

 **** Warning!!: The largest alpha MO coefficient is  0.11677392D+02

 Semi-Direct transformation.
 ModeAB=           4 MOrb=             7 LenV=   26843111494
 LASXX=       305061 LTotXX=      305061 LenRXX=      622071
 LTotAB=      317010 MaxLAS=     2416050 LenRXY=           0
 NonZer=      927132 LenScr=     1966080 LnRSAI=     2416050
 LnScr1=     4325376 LExtra=           0 Total=      9329577
 MaxDsk=          -1 SrtSym=           T ITran=            4
 JobTyp=0 Pass  1:  I=   1 to   7.
 (rs|ai) integrals will be sorted in core.
 Spin components of T(2) and E(2):
     alpha-alpha T2 =       0.1875070878D-01 E2=     -0.4753797123D-01
     alpha-beta  T2 =       0.1058486984D+00 E2=     -0.2922017392D+00
     beta-beta   T2 =       0.1875070878D-01 E2=     -0.4753797123D-01
 ANorm=    0.1069275510D+01
 E2 =    -0.3872776817D+00 EUMP2 =    -0.91938701229841D+03
 Keep R2 and R3 ints in memory in symmetry-blocked form, NReq=20678820.
 CIDS: In Core Option IDoMem=           1.
 Iterations=  50 Convergence= 0.100D-06
 Produce multiple copies of IABC intergrals
 Iteration Nr.   1
 **********************
 DD1Dir will call FoFMem   1 times, MxPair=        56
 NAB=    28 NAA=     0 NBB=     0.
 MP4(R+Q)=  0.12465650D-01
 E3=       -0.33372238D-01        EUMP3=      -0.91942038454D+03
 E4(DQ)=    0.26563885D-02        UMP4(DQ)=   -0.91941772815D+03
 E4(SDQ)=   0.91489615D-03        UMP4(SDQ)=  -0.91941946964D+03
 DE(Corr)= -0.40816862     E(Corr)=     -919.40790324    
 NORM(A)=   0.10777297D+01
 Iteration Nr.   2
 **********************
 DD1Dir will call FoFMem   1 times, MxPair=        56
 NAB=    28 NAA=     0 NBB=     0.
 DE(Corr)= -0.41704362     E(CORR)=     -919.41677824     Delta=-8.88D-03
 NORM(A)=   0.10825569D+01
 Iteration Nr.   3
 **********************
 DD1Dir will call FoFMem   1 times, MxPair=        56
 NAB=    28 NAA=     0 NBB=     0.
 DE(Corr)= -0.41831964     E(CORR)=     -919.41805426     Delta=-1.28D-03
 NORM(A)=   0.10832008D+01
 Iteration Nr.   4
 **********************
 DD1Dir will call FoFMem   1 times, MxPair=        56
 NAB=    28 NAA=     0 NBB=     0.
 DE(Corr)= -0.41885517     E(CORR)=     -919.41858979     Delta=-5.36D-04
 NORM(A)=   0.10834330D+01
 Iteration Nr.   5
 **********************
 DD1Dir will call FoFMem   1 times, MxPair=        56
 NAB=    28 NAA=     0 NBB=     0.
 DE(Corr)= -0.41890041     E(CORR)=     -919.41863502     Delta=-4.52D-05
 NORM(A)=   0.10834719D+01
 Iteration Nr.   6
 **********************
 DD1Dir will call FoFMem   1 times, MxPair=        56
 NAB=    28 NAA=     0 NBB=     0.
 DE(Corr)= -0.41890386     E(CORR)=     -919.41863848     Delta=-3.45D-06
 NORM(A)=   0.10834709D+01
 Iteration Nr.   7
 **********************
 DD1Dir will call FoFMem   1 times, MxPair=        56
 NAB=    28 NAA=     0 NBB=     0.
 DE(Corr)= -0.41890360     E(CORR)=     -919.41863822     Delta= 2.55D-07
 NORM(A)=   0.10834732D+01
 Iteration Nr.   8
 **********************
 DD1Dir will call FoFMem   1 times, MxPair=        56
 NAB=    28 NAA=     0 NBB=     0.
 DE(Corr)= -0.41890321     E(CORR)=     -919.41863783     Delta= 3.90D-07
 NORM(A)=   0.10834732D+01
 Iteration Nr.   9
 **********************
 DD1Dir will call FoFMem   1 times, MxPair=        56
 NAB=    28 NAA=     0 NBB=     0.
 DE(Corr)= -0.41890364     E(CORR)=     -919.41863825     Delta=-4.23D-07
 NORM(A)=   0.10834735D+01
 Iteration Nr.  10
 **********************
 DD1Dir will call FoFMem   1 times, MxPair=        56
 NAB=    28 NAA=     0 NBB=     0.
 DE(Corr)= -0.41890366     E(CORR)=     -919.41863828     Delta=-2.56D-08
 NORM(A)=   0.10834735D+01
 Wavefunction amplitudes converged. E(Corr)=     -919.41863828    
 Largest amplitude= 7.08D-02
 Time for triples=     1455.43 seconds.
 T4(CCSD)= -0.19292714D-01
 T5(CCSD)=  0.21038828D-03
 CCSD(T)= -0.91943772061D+03
 Discarding MO integrals.

 NEF-NEF-NEF-NEF-NEF-NEF-NEF-NEF-NEF-NEF-NEF-NEF-NEF-NEF-NEF-NEF-NEF-NEF-
 NUMERICAL EIGENVECTOR FOLLOWING MINIMUM SEARCH
 GRADIENT ESTIMATION COMPLETE
 ITERATION   1
 HESSIAN EIGENVECTORS AND EIGENVALUES
                           1
     Eigenvalues --     0.15445
   1         B1         1.00000
 MINIMUM SEARCH. TAKING SIMPLE RFO STEP
 SEARCHING FOR LAMDA THAT MINIMIZES ALONG ALL MODES
 VALUE TAKEN    LAMDA=  -0.00004926
 STEP TAKEN. STEPSIZE IS  0.017857
 Current parameter values (internal coordinates)
    I        X         GRADIENT    DISPLACEMENT       NEWX
    1    3.802129     -0.002759      0.017857      3.819986
         Item               Value     Threshold  Converged?
 Maximum Force            0.002759     0.000450     NO 
 RMS     Force            0.002759     0.000300     NO 
 Maximum Displacement     0.017857     0.001800     NO 
 RMS     Displacement     0.017857     0.001200     NO 
 PREDICTED CHANGE IN ENERGY  -0.000025

 NEF-NEF-NEF-NEF-NEF-NEF-NEF-NEF-NEF-NEF-NEF-NEF-NEF-NEF-NEF-NEF-NEF-NEF-
 ---------------------------------------------------------------------------------------------------
                            Z-MATRIX (ANGSTROMS AND DEGREES)
   CD    Cent   Atom    N1       Length/X        N2       Alpha/Y        N3        Beta/Z          J
 ---------------------------------------------------------------------------------------------------
      1      1  Cl
      2      2  Cl       1   2.021449(     1)
 ---------------------------------------------------------------------------------------------------
                         Z-Matrix orientation:                         
 ---------------------------------------------------------------------
 Center     Atomic      Atomic             Coordinates (Angstroms)
 Number     Number       Type             X           Y           Z
 ---------------------------------------------------------------------
      1         17           0        0.000000    0.000000    0.000000
      2         17           0        0.000000    0.000000    2.021449
 ---------------------------------------------------------------------
 Stoichiometry    Cl2
 Framework group  D*H[C*(Cl.Cl)]
 Deg. of freedom     1
 Full point group                 D*H     NOp   8
 Largest Abelian subgroup         D2H     NOp   8
 Largest concise Abelian subgroup C2      NOp   2
                         Standard orientation:                         
 ---------------------------------------------------------------------
 Center     Atomic      Atomic             Coordinates (Angstroms)
 Number     Number       Type             X           Y           Z
 ---------------------------------------------------------------------
      1         17           0        0.000000    0.000000    1.010725
      2         17           0        0.000000    0.000000   -1.010725
 ---------------------------------------------------------------------
 Rotational constants (GHZ):           0.0000000           7.0735936           7.0735936
 Standard basis: Aug-CC-pVTZ (5D, 7F)
 There are    26 symmetry adapted cartesian basis functions of AG  symmetry.
 There are     5 symmetry adapted cartesian basis functions of B1G symmetry.
 There are    14 symmetry adapted cartesian basis functions of B2G symmetry.
 There are    14 symmetry adapted cartesian basis functions of B3G symmetry.
 There are     5 symmetry adapted cartesian basis functions of AU  symmetry.
 There are    26 symmetry adapted cartesian basis functions of B1U symmetry.
 There are    14 symmetry adapted cartesian basis functions of B2U symmetry.
 There are    14 symmetry adapted cartesian basis functions of B3U symmetry.
 There are    21 symmetry adapted basis functions of AG  symmetry.
 There are     5 symmetry adapted basis functions of B1G symmetry.
 There are    12 symmetry adapted basis functions of B2G symmetry.
 There are    12 symmetry adapted basis functions of B3G symmetry.
 There are     5 symmetry adapted basis functions of AU  symmetry.
 There are    21 symmetry adapted basis functions of B1U symmetry.
 There are    12 symmetry adapted basis functions of B2U symmetry.
 There are    12 symmetry adapted basis functions of B3U symmetry.
   100 basis functions,   228 primitive gaussians,   118 cartesian basis functions
    17 alpha electrons       17 beta electrons
       nuclear repulsion energy        75.6547362951 Hartrees.
 NAtoms=    2 NActive=    2 NUniq=    1 SFac= 4.00D+00 NAtFMM=   60 NAOKFM=F Big=F
 Integral buffers will be    131072 words long.
 Raffenetti 1 integral format.
 Two-electron integral symmetry is turned on.
 One-electron integrals computed using PRISM.
 NBasis=   100 RedAO= T EigKep=  4.97D-04  NBF=    21     5    12    12     5    21    12    12
 NBsUse=   100 1.00D-06 EigRej= -1.00D+00 NBFU=    21     5    12    12     5    21    12    12
 Initial guess from the checkpoint file:  "/bscratch/emmanous/3821478.pbs01/Gau-48262.chk"
 B after Tr=     0.000000    0.000000    0.000000
         Rot=    1.000000    0.000000    0.000000    0.000000 Ang=   0.00 deg.
 Initial guess orbital symmetries:
       Occupied  (SGG) (SGU) (SGG) (SGU) (SGG) (SGU) (PIU) (PIU)
                 (PIG) (PIG) (SGG) (SGU) (SGG) (PIU) (PIU) (PIG)
                 (PIG)
       Virtual   (SGU) (SGU) (SGG) (PIU) (PIU) (PIG) (PIG) (SGG)
                 (SGU) (DLTG) (DLTG) (PIU) (PIU) (SGG) (DLTU) (DLTU)
                 (SGU) (PIG) (PIG) (PIU) (PIU) (SGU) (PIG) (PIG)
                 (SGG) (PIU) (PIU) (SGG) (DLTG) (DLTG) (SGG) (DLTU)
                 (DLTU) (PIG) (PIG) (DLTG) (DLTG) (PHIU) (PHIU)
                 (SGU) (PHIG) (PHIG) (PIU) (PIU) (SGU) (DLTU) (DLTU)
                 (SGG) (PIG) (PIG) (SGU) (SGU) (DLTG) (DLTG) (PIU)
                 (PIU) (DLTU) (DLTU) (PIG) (PIG) (PIU) (PIU) (SGG)
                 (SGG) (PIG) (PIG) (SGG) (PIU) (PIU) (DLTG) (DLTG)
                 (PHIU) (PHIU) (PHIG) (PHIG) (DLTU) (DLTU) (SGU)
                 (PIG) (PIG) (SGU) (SGG) (SGU)
 ExpMin= 4.19D-02 ExpMax= 4.56D+05 ExpMxC= 1.44D+03 IAcc=3 IRadAn=         5 AccDes= 0.00D+00
 Harris functional with IExCor=  205 and IRadAn=       5 diagonalized for initial guess.
 HarFok:  IExCor=  205 AccDes= 0.00D+00 IRadAn=         5 IDoV= 1 UseB2=F ITyADJ=14
 ICtDFT=  3500011 ScaDFX=  1.000000  1.000000  1.000000  1.000000
 FoFCou: FMM=F IPFlag=           0 FMFlag=      100000 FMFlg1=           0
         NFxFlg=           0 DoJE=T BraDBF=F KetDBF=T FulRan=T
         wScrn=  0.000000 ICntrl=       500 IOpCl=  0 I1Cent=   200000004 NGrid=           0
         NMat0=    1 NMatS0=      1 NMatT0=    0 NMatD0=    1 NMtDS0=    0 NMtDT0=    0
 Petite list used in FoFCou.
 Keep R1 ints in memory in symmetry-blocked form, NReq=20674872.
 Requested convergence on RMS density matrix=1.00D-08 within 128 cycles.
 Requested convergence on MAX density matrix=1.00D-06.
 Requested convergence on             energy=1.00D-06.
 No special actions if energy rises.
 SCF Done:  E(RHF) =  -918.999477794     A.U. after    6 cycles
            NFock=  6  Conv=0.79D-08     -V/T= 2.0001
 ExpMin= 4.19D-02 ExpMax= 4.56D+05 ExpMxC= 1.44D+03 IAcc=3 IRadAn=         5 AccDes= 0.00D+00
 HarFok:  IExCor=  205 AccDes= 0.00D+00 IRadAn=         5 IDoV=-2 UseB2=F ITyADJ=14
 ICtDFT= 12500011 ScaDFX=  1.000000  1.000000  1.000000  1.000000
 Range of M.O.s used for correlation:    11   100
 NBasis=   100 NAE=    17 NBE=    17 NFC=    10 NFV=     0
 NROrb=     90 NOA=     7 NOB=     7 NVA=    83 NVB=    83

 **** Warning!!: The largest alpha MO coefficient is  0.11555385D+02

 Semi-Direct transformation.
 ModeAB=           4 MOrb=             7 LenV=   26843111494
 LASXX=       305061 LTotXX=      305061 LenRXX=      622071
 LTotAB=      317010 MaxLAS=     2416050 LenRXY=           0
 NonZer=      927132 LenScr=     1966080 LnRSAI=     2416050
 LnScr1=     4325376 LExtra=           0 Total=      9329577
 MaxDsk=          -1 SrtSym=           T ITran=            4
 JobTyp=0 Pass  1:  I=   1 to   7.
 (rs|ai) integrals will be sorted in core.
 Spin components of T(2) and E(2):
     alpha-alpha T2 =       0.1876683488D-01 E2=     -0.4750738984D-01
     alpha-beta  T2 =       0.1061756965D+00 E2=     -0.2923916899D+00
     beta-beta   T2 =       0.1876683488D-01 E2=     -0.4750738984D-01
 ANorm=    0.1069443484D+01
 E2 =    -0.3874064695D+00 EUMP2 =    -0.91938688426348D+03
 Keep R2 and R3 ints in memory in symmetry-blocked form, NReq=20678820.
 CIDS: In Core Option IDoMem=           1.
 Iterations=  50 Convergence= 0.100D-06
 Produce multiple copies of IABC intergrals
 Iteration Nr.   1
 **********************
 DD1Dir will call FoFMem   1 times, MxPair=        56
 NAB=    28 NAA=     0 NBB=     0.
 MP4(R+Q)=  0.12524658D-01
 E3=       -0.33457807D-01        EUMP3=      -0.91942034207D+03
 E4(DQ)=    0.26692698D-02        UMP4(DQ)=   -0.91941767280D+03
 E4(SDQ)=   0.91315234D-03        UMP4(SDQ)=  -0.91941942892D+03
 DE(Corr)= -0.40832388     E(Corr)=     -919.40780168    
 NORM(A)=   0.10779398D+01
 Iteration Nr.   2
 **********************
 DD1Dir will call FoFMem   1 times, MxPair=        56
 NAB=    28 NAA=     0 NBB=     0.
 DE(Corr)= -0.41724075     E(CORR)=     -919.41671854     Delta=-8.92D-03
 NORM(A)=   0.10828189D+01
 Iteration Nr.   3
 **********************
 DD1Dir will call FoFMem   1 times, MxPair=        56
 NAB=    28 NAA=     0 NBB=     0.
 DE(Corr)= -0.41852287     E(CORR)=     -919.41800066     Delta=-1.28D-03
 NORM(A)=   0.10834754D+01
 Iteration Nr.   4
 **********************
 DD1Dir will call FoFMem   1 times, MxPair=        56
 NAB=    28 NAA=     0 NBB=     0.
 DE(Corr)= -0.41906546     E(CORR)=     -919.41854325     Delta=-5.43D-04
 NORM(A)=   0.10837129D+01
 Iteration Nr.   5
 **********************
 DD1Dir will call FoFMem   1 times, MxPair=        56
 NAB=    28 NAA=     0 NBB=     0.
 DE(Corr)= -0.41911141     E(CORR)=     -919.41858920     Delta=-4.60D-05
 NORM(A)=   0.10837529D+01
 Iteration Nr.   6
 **********************
 DD1Dir will call FoFMem   1 times, MxPair=        56
 NAB=    28 NAA=     0 NBB=     0.
 DE(Corr)= -0.41911495     E(CORR)=     -919.41859274     Delta=-3.53D-06
 NORM(A)=   0.10837519D+01
 Iteration Nr.   7
 **********************
 DD1Dir will call FoFMem   1 times, MxPair=        56
 NAB=    28 NAA=     0 NBB=     0.
 DE(Corr)= -0.41911469     E(CORR)=     -919.41859249     Delta= 2.52D-07
 NORM(A)=   0.10837543D+01
 Iteration Nr.   8
 **********************
 DD1Dir will call FoFMem   1 times, MxPair=        56
 NAB=    28 NAA=     0 NBB=     0.
 DE(Corr)= -0.41911429     E(CORR)=     -919.41859209     Delta= 4.01D-07
 NORM(A)=   0.10837542D+01
 Iteration Nr.   9
 **********************
 DD1Dir will call FoFMem   1 times, MxPair=        56
 NAB=    28 NAA=     0 NBB=     0.
 DE(Corr)= -0.41911473     E(CORR)=     -919.41859252     Delta=-4.36D-07
 NORM(A)=   0.10837545D+01
 Iteration Nr.  10
 **********************
 DD1Dir will call FoFMem   1 times, MxPair=        56
 NAB=    28 NAA=     0 NBB=     0.
 DE(Corr)= -0.41911475     E(CORR)=     -919.41859255     Delta=-2.49D-08
 NORM(A)=   0.10837546D+01
 Wavefunction amplitudes converged. E(Corr)=     -919.41859255    
 Largest amplitude= 7.40D-02
 Time for triples=     1375.08 seconds.
 T4(CCSD)= -0.19358418D-01
 T5(CCSD)=  0.21208906D-03
 CCSD(T)= -0.91943773888D+03
 Discarding MO integrals.

 NEF-NEF-NEF-NEF-NEF-NEF-NEF-NEF-NEF-NEF-NEF-NEF-NEF-NEF-NEF-NEF-NEF-NEF-
 NUMERICAL EIGENVECTOR FOLLOWING MINIMUM SEARCH
 NUMERICALLY ESTIMATING GRADIENTS
 ITERATION   1 VARIABLE  1 STEP  1

 NEF-NEF-NEF-NEF-NEF-NEF-NEF-NEF-NEF-NEF-NEF-NEF-NEF-NEF-NEF-NEF-NEF-NEF-
 ---------------------------------------------------------------------------------------------------
                            Z-MATRIX (ANGSTROMS AND DEGREES)
   CD    Cent   Atom    N1       Length/X        N2       Alpha/Y        N3        Beta/Z          J
 ---------------------------------------------------------------------------------------------------
      1      1  Cl
      2      2  Cl       1   2.021560(     1)
 ---------------------------------------------------------------------------------------------------
                         Z-Matrix orientation:                         
 ---------------------------------------------------------------------
 Center     Atomic      Atomic             Coordinates (Angstroms)
 Number     Number       Type             X           Y           Z
 ---------------------------------------------------------------------
      1         17           0        0.000000    0.000000    0.000000
      2         17           0        0.000000    0.000000    2.021560
 ---------------------------------------------------------------------
 Stoichiometry    Cl2
 Framework group  D*H[C*(Cl.Cl)]
 Deg. of freedom     1
 Full point group                 D*H     NOp   8
 Largest Abelian subgroup         D2H     NOp   8
 Largest concise Abelian subgroup C2      NOp   2
                         Standard orientation:                         
 ---------------------------------------------------------------------
 Center     Atomic      Atomic             Coordinates (Angstroms)
 Number     Number       Type             X           Y           Z
 ---------------------------------------------------------------------
      1         17           0        0.000000    0.000000    1.010780
      2         17           0        0.000000    0.000000   -1.010780
 ---------------------------------------------------------------------
 Rotational constants (GHZ):           0.0000000           7.0728187           7.0728187
 Standard basis: Aug-CC-pVTZ (5D, 7F)
 There are    26 symmetry adapted cartesian basis functions of AG  symmetry.
 There are     5 symmetry adapted cartesian basis functions of B1G symmetry.
 There are    14 symmetry adapted cartesian basis functions of B2G symmetry.
 There are    14 symmetry adapted cartesian basis functions of B3G symmetry.
 There are     5 symmetry adapted cartesian basis functions of AU  symmetry.
 There are    26 symmetry adapted cartesian basis functions of B1U symmetry.
 There are    14 symmetry adapted cartesian basis functions of B2U symmetry.
 There are    14 symmetry adapted cartesian basis functions of B3U symmetry.
 There are    21 symmetry adapted basis functions of AG  symmetry.
 There are     5 symmetry adapted basis functions of B1G symmetry.
 There are    12 symmetry adapted basis functions of B2G symmetry.
 There are    12 symmetry adapted basis functions of B3G symmetry.
 There are     5 symmetry adapted basis functions of AU  symmetry.
 There are    21 symmetry adapted basis functions of B1U symmetry.
 There are    12 symmetry adapted basis functions of B2U symmetry.
 There are    12 symmetry adapted basis functions of B3U symmetry.
   100 basis functions,   228 primitive gaussians,   118 cartesian basis functions
    17 alpha electrons       17 beta electrons
       nuclear repulsion energy        75.6505925281 Hartrees.
 NAtoms=    2 NActive=    2 NUniq=    1 SFac= 4.00D+00 NAtFMM=   60 NAOKFM=F Big=F
 Integral buffers will be    131072 words long.
 Raffenetti 1 integral format.
 Two-electron integral symmetry is turned on.
 One-electron integrals computed using PRISM.
 NBasis=   100 RedAO= T EigKep=  4.97D-04  NBF=    21     5    12    12     5    21    12    12
 NBsUse=   100 1.00D-06 EigRej= -1.00D+00 NBFU=    21     5    12    12     5    21    12    12
 Initial guess from the checkpoint file:  "/bscratch/emmanous/3821478.pbs01/Gau-48262.chk"
 B after Tr=     0.000000    0.000000    0.000000
         Rot=    1.000000    0.000000    0.000000    0.000000 Ang=   0.00 deg.
 Initial guess orbital symmetries:
       Occupied  (SGG) (SGU) (SGG) (SGU) (SGG) (SGU) (PIU) (PIU)
                 (PIG) (PIG) (SGG) (SGU) (SGG) (PIU) (PIU) (PIG)
                 (PIG)
       Virtual   (SGU) (SGU) (SGG) (PIU) (PIU) (PIG) (PIG) (SGG)
                 (SGU) (DLTG) (DLTG) (PIU) (PIU) (SGG) (DLTU) (DLTU)
                 (SGU) (PIG) (PIG) (PIU) (PIU) (SGU) (PIG) (PIG)
                 (SGG) (PIU) (PIU) (SGG) (DLTG) (DLTG) (SGG) (DLTU)
                 (DLTU) (PIG) (PIG) (DLTG) (DLTG) (PHIU) (PHIU)
                 (SGU) (PHIG) (PHIG) (PIU) (PIU) (SGU) (DLTU) (DLTU)
                 (SGG) (PIG) (PIG) (SGU) (SGU) (DLTG) (DLTG) (PIU)
                 (PIU) (DLTU) (DLTU) (PIG) (PIG) (PIU) (PIU) (SGG)
                 (SGG) (PIG) (PIG) (SGG) (PIU) (PIU) (DLTG) (DLTG)
                 (PHIU) (PHIU) (PHIG) (PHIG) (DLTU) (DLTU) (SGU)
                 (PIG) (PIG) (SGU) (SGG) (SGU)
 ExpMin= 4.19D-02 ExpMax= 4.56D+05 ExpMxC= 1.44D+03 IAcc=3 IRadAn=         5 AccDes= 0.00D+00
 Harris functional with IExCor=  205 and IRadAn=       5 diagonalized for initial guess.
 HarFok:  IExCor=  205 AccDes= 0.00D+00 IRadAn=         5 IDoV= 1 UseB2=F ITyADJ=14
 ICtDFT=  3500011 ScaDFX=  1.000000  1.000000  1.000000  1.000000
 FoFCou: FMM=F IPFlag=           0 FMFlag=      100000 FMFlg1=           0
         NFxFlg=           0 DoJE=T BraDBF=F KetDBF=T FulRan=T
         wScrn=  0.000000 ICntrl=       500 IOpCl=  0 I1Cent=   200000004 NGrid=           0
         NMat0=    1 NMatS0=      1 NMatT0=    0 NMatD0=    1 NMtDS0=    0 NMtDT0=    0
 Petite list used in FoFCou.
 Keep R1 ints in memory in symmetry-blocked form, NReq=20674872.
 Requested convergence on RMS density matrix=1.00D-08 within 128 cycles.
 Requested convergence on MAX density matrix=1.00D-06.
 Requested convergence on             energy=1.00D-06.
 No special actions if energy rises.
 SCF Done:  E(RHF) =  -918.999474411     A.U. after    4 cycles
            NFock=  4  Conv=0.99D-08     -V/T= 2.0001
 ExpMin= 4.19D-02 ExpMax= 4.56D+05 ExpMxC= 1.44D+03 IAcc=3 IRadAn=         5 AccDes= 0.00D+00
 HarFok:  IExCor=  205 AccDes= 0.00D+00 IRadAn=         5 IDoV=-2 UseB2=F ITyADJ=14
 ICtDFT= 12500011 ScaDFX=  1.000000  1.000000  1.000000  1.000000
 Range of M.O.s used for correlation:    11   100
 NBasis=   100 NAE=    17 NBE=    17 NFC=    10 NFV=     0
 NROrb=     90 NOA=     7 NOB=     7 NVA=    83 NVB=    83

 **** Warning!!: The largest alpha MO coefficient is  0.11553950D+02

 Semi-Direct transformation.
 ModeAB=           4 MOrb=             7 LenV=   26843111494
 LASXX=       305061 LTotXX=      305061 LenRXX=      622071
 LTotAB=      317010 MaxLAS=     2416050 LenRXY=           0
 NonZer=      927132 LenScr=     1966080 LnRSAI=     2416050
 LnScr1=     4325376 LExtra=           0 Total=      9329577
 MaxDsk=          -1 SrtSym=           T ITran=            4
 JobTyp=0 Pass  1:  I=   1 to   7.
 (rs|ai) integrals will be sorted in core.
 Spin components of T(2) and E(2):
     alpha-alpha T2 =       0.1876702232D-01 E2=     -0.4750703975D-01
     alpha-beta  T2 =       0.1061795137D+00 E2=     -0.2923939123D+00
     beta-beta   T2 =       0.1876702232D-01 E2=     -0.4750703975D-01
 ANorm=    0.1069445444D+01
 E2 =    -0.3874079918D+00 EUMP2 =    -0.91938688240272D+03
 Keep R2 and R3 ints in memory in symmetry-blocked form, NReq=20678820.
 CIDS: In Core Option IDoMem=           1.
 Iterations=  50 Convergence= 0.100D-06
 Produce multiple copies of IABC intergrals
 Iteration Nr.   1
 **********************
 DD1Dir will call FoFMem   1 times, MxPair=        56
 NAB=    28 NAA=     0 NBB=     0.
 MP4(R+Q)=  0.12525348D-01
 E3=       -0.33458798D-01        EUMP3=      -0.91942034120D+03
 E4(DQ)=    0.26694201D-02        UMP4(DQ)=   -0.91941767178D+03
 E4(SDQ)=   0.91313232D-03        UMP4(SDQ)=  -0.91941942807D+03
 DE(Corr)= -0.40832570     E(Corr)=     -919.40780011    
 NORM(A)=   0.10779422D+01
 Iteration Nr.   2
 **********************
 DD1Dir will call FoFMem   1 times, MxPair=        56
 NAB=    28 NAA=     0 NBB=     0.
 DE(Corr)= -0.41724306     E(CORR)=     -919.41671747     Delta=-8.92D-03
 NORM(A)=   0.10828220D+01
 Iteration Nr.   3
 **********************
 DD1Dir will call FoFMem   1 times, MxPair=        56
 NAB=    28 NAA=     0 NBB=     0.
 DE(Corr)= -0.41852525     E(CORR)=     -919.41799966     Delta=-1.28D-03
 NORM(A)=   0.10834786D+01
 Iteration Nr.   4
 **********************
 DD1Dir will call FoFMem   1 times, MxPair=        56
 NAB=    28 NAA=     0 NBB=     0.
 DE(Corr)= -0.41906792     E(CORR)=     -919.41854233     Delta=-5.43D-04
 NORM(A)=   0.10837162D+01
 Iteration Nr.   5
 **********************
 DD1Dir will call FoFMem   1 times, MxPair=        56
 NAB=    28 NAA=     0 NBB=     0.
 DE(Corr)= -0.41911388     E(CORR)=     -919.41858829     Delta=-4.60D-05
 NORM(A)=   0.10837561D+01
 Iteration Nr.   6
 **********************
 DD1Dir will call FoFMem   1 times, MxPair=        56
 NAB=    28 NAA=     0 NBB=     0.
 DE(Corr)= -0.41911742     E(CORR)=     -919.41859183     Delta=-3.54D-06
 NORM(A)=   0.10837551D+01
 Iteration Nr.   7
 **********************
 DD1Dir will call FoFMem   1 times, MxPair=        56
 NAB=    28 NAA=     0 NBB=     0.
 DE(Corr)= -0.41911717     E(CORR)=     -919.41859158     Delta= 2.52D-07
 NORM(A)=   0.10837576D+01
 Iteration Nr.   8
 **********************
 DD1Dir will call FoFMem   1 times, MxPair=        56
 NAB=    28 NAA=     0 NBB=     0.
 DE(Corr)= -0.41911677     E(CORR)=     -919.41859118     Delta= 4.02D-07
 NORM(A)=   0.10837575D+01
 Iteration Nr.   9
 **********************
 DD1Dir will call FoFMem   1 times, MxPair=        56
 NAB=    28 NAA=     0 NBB=     0.
 DE(Corr)= -0.41911720     E(CORR)=     -919.41859161     Delta=-4.37D-07
 NORM(A)=   0.10837578D+01
 Iteration Nr.  10
 **********************
 DD1Dir will call FoFMem   1 times, MxPair=        56
 NAB=    28 NAA=     0 NBB=     0.
 DE(Corr)= -0.41911723     E(CORR)=     -919.41859164     Delta=-2.48D-08
 NORM(A)=   0.10837579D+01
 Wavefunction amplitudes converged. E(Corr)=     -919.41859164    
 Largest amplitude= 7.41D-02
 Time for triples=     1288.28 seconds.
 T4(CCSD)= -0.19359186D-01
 T5(CCSD)=  0.21210888D-03
 CCSD(T)= -0.91943773872D+03
 Discarding MO integrals.

 NEF-NEF-NEF-NEF-NEF-NEF-NEF-NEF-NEF-NEF-NEF-NEF-NEF-NEF-NEF-NEF-NEF-NEF-
 NUMERICAL EIGENVECTOR FOLLOWING MINIMUM SEARCH
 GRADIENT ESTIMATION COMPLETE
 Hessian updated using Powell update
 ITERATION   2
 HESSIAN EIGENVECTORS AND EIGENVALUES
                           1
     Eigenvalues --     0.19653
   1         B1         1.00000
 MINIMUM SEARCH. TAKING SIMPLE RFO STEP
 SEARCHING FOR LAMDA THAT MINIMIZES ALONG ALL MODES
 VALUE TAKEN    LAMDA=  -0.00000287
 STEP TAKEN. STEPSIZE IS  0.003819
 Current parameter values (internal coordinates)
    I        X         GRADIENT    DISPLACEMENT       NEWX
    1    3.819986      0.000751     -0.003819      3.816166
         Item               Value     Threshold  Converged?
 Maximum Force            0.000751     0.000450     NO 
 RMS     Force            0.000751     0.000300     NO 
 Maximum Displacement     0.003819     0.001800     NO 
 RMS     Displacement     0.003819     0.001200     NO 
 PREDICTED CHANGE IN ENERGY  -0.000001

 NEF-NEF-NEF-NEF-NEF-NEF-NEF-NEF-NEF-NEF-NEF-NEF-NEF-NEF-NEF-NEF-NEF-NEF-
 ---------------------------------------------------------------------------------------------------
                            Z-MATRIX (ANGSTROMS AND DEGREES)
   CD    Cent   Atom    N1       Length/X        N2       Alpha/Y        N3        Beta/Z          J
 ---------------------------------------------------------------------------------------------------
      1      1  Cl
      2      2  Cl       1   2.019428(     1)
 ---------------------------------------------------------------------------------------------------
                         Z-Matrix orientation:                         
 ---------------------------------------------------------------------
 Center     Atomic      Atomic             Coordinates (Angstroms)
 Number     Number       Type             X           Y           Z
 ---------------------------------------------------------------------
      1         17           0        0.000000    0.000000    0.000000
      2         17           0        0.000000    0.000000    2.019428
 ---------------------------------------------------------------------
 Stoichiometry    Cl2
 Framework group  D*H[C*(Cl.Cl)]
 Deg. of freedom     1
 Full point group                 D*H     NOp   8
 Largest Abelian subgroup         D2H     NOp   8
 Largest concise Abelian subgroup C2      NOp   2
                         Standard orientation:                         
 ---------------------------------------------------------------------
 Center     Atomic      Atomic             Coordinates (Angstroms)
 Number     Number       Type             X           Y           Z
 ---------------------------------------------------------------------
      1         17           0        0.000000    0.000000    1.009714
      2         17           0        0.000000    0.000000   -1.009714
 ---------------------------------------------------------------------
 Rotational constants (GHZ):           0.0000000           7.0877587           7.0877587
 Standard basis: Aug-CC-pVTZ (5D, 7F)
 There are    26 symmetry adapted cartesian basis functions of AG  symmetry.
 There are     5 symmetry adapted cartesian basis functions of B1G symmetry.
 There are    14 symmetry adapted cartesian basis functions of B2G symmetry.
 There are    14 symmetry adapted cartesian basis functions of B3G symmetry.
 There are     5 symmetry adapted cartesian basis functions of AU  symmetry.
 There are    26 symmetry adapted cartesian basis functions of B1U symmetry.
 There are    14 symmetry adapted cartesian basis functions of B2U symmetry.
 There are    14 symmetry adapted cartesian basis functions of B3U symmetry.
 There are    21 symmetry adapted basis functions of AG  symmetry.
 There are     5 symmetry adapted basis functions of B1G symmetry.
 There are    12 symmetry adapted basis functions of B2G symmetry.
 There are    12 symmetry adapted basis functions of B3G symmetry.
 There are     5 symmetry adapted basis functions of AU  symmetry.
 There are    21 symmetry adapted basis functions of B1U symmetry.
 There are    12 symmetry adapted basis functions of B2U symmetry.
 There are    12 symmetry adapted basis functions of B3U symmetry.
   100 basis functions,   228 primitive gaussians,   118 cartesian basis functions
    17 alpha electrons       17 beta electrons
       nuclear repulsion energy        75.7304488828 Hartrees.
 NAtoms=    2 NActive=    2 NUniq=    1 SFac= 4.00D+00 NAtFMM=   60 NAOKFM=F Big=F
 Integral buffers will be    131072 words long.
 Raffenetti 1 integral format.
 Two-electron integral symmetry is turned on.
 One-electron integrals computed using PRISM.
 NBasis=   100 RedAO= T EigKep=  4.94D-04  NBF=    21     5    12    12     5    21    12    12
 NBsUse=   100 1.00D-06 EigRej= -1.00D+00 NBFU=    21     5    12    12     5    21    12    12
 Initial guess from the checkpoint file:  "/bscratch/emmanous/3821478.pbs01/Gau-48262.chk"
 B after Tr=    -0.000000    0.000000    0.000000
         Rot=    1.000000    0.000000    0.000000    0.000000 Ang=   0.00 deg.
 Initial guess orbital symmetries:
       Occupied  (SGG) (SGU) (SGG) (SGU) (SGG) (SGU) (PIU) (PIU)
                 (PIG) (PIG) (SGG) (SGU) (SGG) (PIU) (PIU) (PIG)
                 (PIG)
       Virtual   (SGU) (SGU) (SGG) (PIU) (PIU) (PIG) (PIG) (SGG)
                 (SGU) (DLTG) (DLTG) (PIU) (PIU) (SGG) (DLTU) (DLTU)
                 (SGU) (PIG) (PIG) (PIU) (PIU) (SGU) (PIG) (PIG)
                 (SGG) (PIU) (PIU) (SGG) (DLTG) (DLTG) (SGG) (DLTU)
                 (DLTU) (PIG) (PIG) (DLTG) (DLTG) (PHIU) (PHIU)
                 (SGU) (PHIG) (PHIG) (PIU) (PIU) (SGU) (DLTU) (DLTU)
                 (SGG) (PIG) (PIG) (SGU) (SGU) (DLTG) (DLTG) (PIU)
                 (PIU) (DLTU) (DLTU) (PIG) (PIG) (PIU) (PIU) (SGG)
                 (SGG) (PIG) (PIG) (SGG) (PIU) (PIU) (DLTG) (DLTG)
                 (PHIU) (PHIU) (PHIG) (PHIG) (DLTU) (DLTU) (SGU)
                 (PIG) (PIG) (SGU) (SGG) (SGU)
 ExpMin= 4.19D-02 ExpMax= 4.56D+05 ExpMxC= 1.44D+03 IAcc=3 IRadAn=         5 AccDes= 0.00D+00
 Harris functional with IExCor=  205 and IRadAn=       5 diagonalized for initial guess.
 HarFok:  IExCor=  205 AccDes= 0.00D+00 IRadAn=         5 IDoV= 1 UseB2=F ITyADJ=14
 ICtDFT=  3500011 ScaDFX=  1.000000  1.000000  1.000000  1.000000
 FoFCou: FMM=F IPFlag=           0 FMFlag=      100000 FMFlg1=           0
         NFxFlg=           0 DoJE=T BraDBF=F KetDBF=T FulRan=T
         wScrn=  0.000000 ICntrl=       500 IOpCl=  0 I1Cent=   200000004 NGrid=           0
         NMat0=    1 NMatS0=      1 NMatT0=    0 NMatD0=    1 NMtDS0=    0 NMtDT0=    0
 Petite list used in FoFCou.
 Keep R1 ints in memory in symmetry-blocked form, NReq=20674872.
 Requested convergence on RMS density matrix=1.00D-08 within 128 cycles.
 Requested convergence on MAX density matrix=1.00D-06.
 Requested convergence on             energy=1.00D-06.
 No special actions if energy rises.
 SCF Done:  E(RHF) =  -918.999537917     A.U. after    6 cycles
            NFock=  6  Conv=0.18D-08     -V/T= 2.0001
 ExpMin= 4.19D-02 ExpMax= 4.56D+05 ExpMxC= 1.44D+03 IAcc=3 IRadAn=         5 AccDes= 0.00D+00
 HarFok:  IExCor=  205 AccDes= 0.00D+00 IRadAn=         5 IDoV=-2 UseB2=F ITyADJ=14
 ICtDFT= 12500011 ScaDFX=  1.000000  1.000000  1.000000  1.000000
 Range of M.O.s used for correlation:    11   100
 NBasis=   100 NAE=    17 NBE=    17 NFC=    10 NFV=     0
 NROrb=     90 NOA=     7 NOB=     7 NVA=    83 NVB=    83

 **** Warning!!: The largest alpha MO coefficient is  0.11581502D+02

 Semi-Direct transformation.
 ModeAB=           4 MOrb=             7 LenV=   26843111494
 LASXX=       305061 LTotXX=      305061 LenRXX=      622071
 LTotAB=      317010 MaxLAS=     2416050 LenRXY=           0
 NonZer=      927132 LenScr=     1966080 LnRSAI=     2416050
 LnScr1=     4325376 LExtra=           0 Total=      9329577
 MaxDsk=          -1 SrtSym=           T ITran=            4
 JobTyp=0 Pass  1:  I=   1 to   7.
 (rs|ai) integrals will be sorted in core.
 Spin components of T(2) and E(2):
     alpha-alpha T2 =       0.1876341542D-01 E2=     -0.4751380191D-01
     alpha-beta  T2 =       0.1061061300D+00 E2=     -0.2923512287D+00
     beta-beta   T2 =       0.1876341542D-01 E2=     -0.4751380191D-01
 ANorm=    0.1069407762D+01
 E2 =    -0.3873788326D+00 EUMP2 =    -0.91938691674970D+03
 Keep R2 and R3 ints in memory in symmetry-blocked form, NReq=20678820.
 CIDS: In Core Option IDoMem=           1.
 Iterations=  50 Convergence= 0.100D-06
 Produce multiple copies of IABC intergrals
 Iteration Nr.   1
 **********************
 DD1Dir will call FoFMem   1 times, MxPair=        56
 NAB=    28 NAA=     0 NBB=     0.
 MP4(R+Q)=  0.12512089D-01
 E3=       -0.33439736D-01        EUMP3=      -0.91942035649D+03
 E4(DQ)=    0.26665288D-02        UMP4(DQ)=   -0.91941768996D+03
 E4(SDQ)=   0.91352132D-03        UMP4(SDQ)=  -0.91941944296D+03
 DE(Corr)= -0.40829076     E(Corr)=     -919.40782868    
 NORM(A)=   0.10778952D+01
 Iteration Nr.   2
 **********************
 DD1Dir will call FoFMem   1 times, MxPair=        56
 NAB=    28 NAA=     0 NBB=     0.
 DE(Corr)= -0.41719872     E(CORR)=     -919.41673664     Delta=-8.91D-03
 NORM(A)=   0.10827632D+01
 Iteration Nr.   3
 **********************
 DD1Dir will call FoFMem   1 times, MxPair=        56
 NAB=    28 NAA=     0 NBB=     0.
 DE(Corr)= -0.41847954     E(CORR)=     -919.41801746     Delta=-1.28D-03
 NORM(A)=   0.10834169D+01
 Iteration Nr.   4
 **********************
 DD1Dir will call FoFMem   1 times, MxPair=        56
 NAB=    28 NAA=     0 NBB=     0.
 DE(Corr)= -0.41902062     E(CORR)=     -919.41855854     Delta=-5.41D-04
 NORM(A)=   0.10836533D+01
 Iteration Nr.   5
 **********************
 DD1Dir will call FoFMem   1 times, MxPair=        56
 NAB=    28 NAA=     0 NBB=     0.
 DE(Corr)= -0.41906642     E(CORR)=     -919.41860434     Delta=-4.58D-05
 NORM(A)=   0.10836930D+01
 Iteration Nr.   6
 **********************
 DD1Dir will call FoFMem   1 times, MxPair=        56
 NAB=    28 NAA=     0 NBB=     0.
 DE(Corr)= -0.41906994     E(CORR)=     -919.41860786     Delta=-3.52D-06
 NORM(A)=   0.10836920D+01
 Iteration Nr.   7
 **********************
 DD1Dir will call FoFMem   1 times, MxPair=        56
 NAB=    28 NAA=     0 NBB=     0.
 DE(Corr)= -0.41906969     E(CORR)=     -919.41860760     Delta= 2.53D-07
 NORM(A)=   0.10836945D+01
 Iteration Nr.   8
 **********************
 DD1Dir will call FoFMem   1 times, MxPair=        56
 NAB=    28 NAA=     0 NBB=     0.
 DE(Corr)= -0.41906929     E(CORR)=     -919.41860721     Delta= 3.99D-07
 NORM(A)=   0.10836944D+01
 Iteration Nr.   9
 **********************
 DD1Dir will call FoFMem   1 times, MxPair=        56
 NAB=    28 NAA=     0 NBB=     0.
 DE(Corr)= -0.41906972     E(CORR)=     -919.41860764     Delta=-4.34D-07
 NORM(A)=   0.10836947D+01
 Iteration Nr.  10
 **********************
 DD1Dir will call FoFMem   1 times, MxPair=        56
 NAB=    28 NAA=     0 NBB=     0.
 DE(Corr)= -0.41906975     E(CORR)=     -919.41860766     Delta=-2.50D-08
 NORM(A)=   0.10836948D+01
 Wavefunction amplitudes converged. E(Corr)=     -919.41860766    
 Largest amplitude= 7.33D-02
 Time for triples=     1282.98 seconds.
 T4(CCSD)= -0.19344418D-01
 T5(CCSD)=  0.21172693D-03
 CCSD(T)= -0.91943774036D+03
 Discarding MO integrals.

 NEF-NEF-NEF-NEF-NEF-NEF-NEF-NEF-NEF-NEF-NEF-NEF-NEF-NEF-NEF-NEF-NEF-NEF-
 NUMERICAL EIGENVECTOR FOLLOWING MINIMUM SEARCH
 NUMERICALLY ESTIMATING GRADIENTS
 ITERATION   2 VARIABLE  1 STEP  1

 NEF-NEF-NEF-NEF-NEF-NEF-NEF-NEF-NEF-NEF-NEF-NEF-NEF-NEF-NEF-NEF-NEF-NEF-
 ---------------------------------------------------------------------------------------------------
                            Z-MATRIX (ANGSTROMS AND DEGREES)
   CD    Cent   Atom    N1       Length/X        N2       Alpha/Y        N3        Beta/Z          J
 ---------------------------------------------------------------------------------------------------
      1      1  Cl
      2      2  Cl       1   2.019539(     1)
 ---------------------------------------------------------------------------------------------------
                         Z-Matrix orientation:                         
 ---------------------------------------------------------------------
 Center     Atomic      Atomic             Coordinates (Angstroms)
 Number     Number       Type             X           Y           Z
 ---------------------------------------------------------------------
      1         17           0        0.000000    0.000000    0.000000
      2         17           0        0.000000    0.000000    2.019539
 ---------------------------------------------------------------------
 Stoichiometry    Cl2
 Framework group  D*H[C*(Cl.Cl)]
 Deg. of freedom     1
 Full point group                 D*H     NOp   8
 Largest Abelian subgroup         D2H     NOp   8
 Largest concise Abelian subgroup C2      NOp   2
                         Standard orientation:                         
 ---------------------------------------------------------------------
 Center     Atomic      Atomic             Coordinates (Angstroms)
 Number     Number       Type             X           Y           Z
 ---------------------------------------------------------------------
      1         17           0        0.000000    0.000000    1.009769
      2         17           0        0.000000    0.000000   -1.009769
 ---------------------------------------------------------------------
 Rotational constants (GHZ):           0.0000000           7.0869821           7.0869821
 Standard basis: Aug-CC-pVTZ (5D, 7F)
 There are    26 symmetry adapted cartesian basis functions of AG  symmetry.
 There are     5 symmetry adapted cartesian basis functions of B1G symmetry.
 There are    14 symmetry adapted cartesian basis functions of B2G symmetry.
 There are    14 symmetry adapted cartesian basis functions of B3G symmetry.
 There are     5 symmetry adapted cartesian basis functions of AU  symmetry.
 There are    26 symmetry adapted cartesian basis functions of B1U symmetry.
 There are    14 symmetry adapted cartesian basis functions of B2U symmetry.
 There are    14 symmetry adapted cartesian basis functions of B3U symmetry.
 There are    21 symmetry adapted basis functions of AG  symmetry.
 There are     5 symmetry adapted basis functions of B1G symmetry.
 There are    12 symmetry adapted basis functions of B2G symmetry.
 There are    12 symmetry adapted basis functions of B3G symmetry.
 There are     5 symmetry adapted basis functions of AU  symmetry.
 There are    21 symmetry adapted basis functions of B1U symmetry.
 There are    12 symmetry adapted basis functions of B2U symmetry.
 There are    12 symmetry adapted basis functions of B3U symmetry.
   100 basis functions,   228 primitive gaussians,   118 cartesian basis functions
    17 alpha electrons       17 beta electrons
       nuclear repulsion energy        75.7263001077 Hartrees.
 NAtoms=    2 NActive=    2 NUniq=    1 SFac= 4.00D+00 NAtFMM=   60 NAOKFM=F Big=F
 Integral buffers will be    131072 words long.
 Raffenetti 1 integral format.
 Two-electron integral symmetry is turned on.
 One-electron integrals computed using PRISM.
 NBasis=   100 RedAO= T EigKep=  4.94D-04  NBF=    21     5    12    12     5    21    12    12
 NBsUse=   100 1.00D-06 EigRej= -1.00D+00 NBFU=    21     5    12    12     5    21    12    12
 Initial guess from the checkpoint file:  "/bscratch/emmanous/3821478.pbs01/Gau-48262.chk"
 B after Tr=     0.000000    0.000000    0.000000
         Rot=    1.000000    0.000000    0.000000    0.000000 Ang=   0.00 deg.
 Initial guess orbital symmetries:
       Occupied  (SGG) (SGU) (SGG) (SGU) (SGG) (SGU) (PIU) (PIU)
                 (PIG) (PIG) (SGG) (SGU) (SGG) (PIU) (PIU) (PIG)
                 (PIG)
       Virtual   (SGU) (SGU) (SGG) (PIU) (PIU) (PIG) (PIG) (SGG)
                 (SGU) (DLTG) (DLTG) (PIU) (PIU) (SGG) (DLTU) (DLTU)
                 (SGU) (PIG) (PIG) (PIU) (PIU) (SGU) (PIG) (PIG)
                 (SGG) (PIU) (PIU) (SGG) (DLTG) (DLTG) (SGG) (DLTU)
                 (DLTU) (PIG) (PIG) (DLTG) (DLTG) (PHIU) (PHIU)
                 (SGU) (PHIG) (PHIG) (PIU) (PIU) (SGU) (DLTU) (DLTU)
                 (SGG) (PIG) (PIG) (SGU) (SGU) (DLTG) (DLTG) (PIU)
                 (PIU) (DLTU) (DLTU) (PIG) (PIG) (PIU) (PIU) (SGG)
                 (SGG) (PIG) (PIG) (SGG) (PIU) (PIU) (DLTG) (DLTG)
                 (PHIU) (PHIU) (PHIG) (PHIG) (DLTU) (DLTU) (SGU)
                 (PIG) (PIG) (SGU) (SGG) (SGU)
 ExpMin= 4.19D-02 ExpMax= 4.56D+05 ExpMxC= 1.44D+03 IAcc=3 IRadAn=         5 AccDes= 0.00D+00
 Harris functional with IExCor=  205 and IRadAn=       5 diagonalized for initial guess.
 HarFok:  IExCor=  205 AccDes= 0.00D+00 IRadAn=         5 IDoV= 1 UseB2=F ITyADJ=14
 ICtDFT=  3500011 ScaDFX=  1.000000  1.000000  1.000000  1.000000
 FoFCou: FMM=F IPFlag=           0 FMFlag=      100000 FMFlg1=           0
         NFxFlg=           0 DoJE=T BraDBF=F KetDBF=T FulRan=T
         wScrn=  0.000000 ICntrl=       500 IOpCl=  0 I1Cent=   200000004 NGrid=           0
         NMat0=    1 NMatS0=      1 NMatT0=    0 NMatD0=    1 NMtDS0=    0 NMtDT0=    0
 Petite list used in FoFCou.
 Keep R1 ints in memory in symmetry-blocked form, NReq=20674872.
 Requested convergence on RMS density matrix=1.00D-08 within 128 cycles.
 Requested convergence on MAX density matrix=1.00D-06.
 Requested convergence on             energy=1.00D-06.
 No special actions if energy rises.
 SCF Done:  E(RHF) =  -918.999534706     A.U. after    4 cycles
            NFock=  4  Conv=0.99D-08     -V/T= 2.0001
 ExpMin= 4.19D-02 ExpMax= 4.56D+05 ExpMxC= 1.44D+03 IAcc=3 IRadAn=         5 AccDes= 0.00D+00
 HarFok:  IExCor=  205 AccDes= 0.00D+00 IRadAn=         5 IDoV=-2 UseB2=F ITyADJ=14
 ICtDFT= 12500011 ScaDFX=  1.000000  1.000000  1.000000  1.000000
 Range of M.O.s used for correlation:    11   100
 NBasis=   100 NAE=    17 NBE=    17 NFC=    10 NFV=     0
 NROrb=     90 NOA=     7 NOB=     7 NVA=    83 NVB=    83

 **** Warning!!: The largest alpha MO coefficient is  0.11580077D+02

 Semi-Direct transformation.
 ModeAB=           4 MOrb=             7 LenV=   26843111494
 LASXX=       305061 LTotXX=      305061 LenRXX=      622071
 LTotAB=      317010 MaxLAS=     2416050 LenRXY=           0
 NonZer=      927132 LenScr=     1966080 LnRSAI=     2416050
 LnScr1=     4325376 LExtra=           0 Total=      9329577
 MaxDsk=          -1 SrtSym=           T ITran=            4
 JobTyp=0 Pass  1:  I=   1 to   7.
 (rs|ai) integrals will be sorted in core.
 Spin components of T(2) and E(2):
     alpha-alpha T2 =       0.1876360134D-01 E2=     -0.4751344844D-01
     alpha-beta  T2 =       0.1061099265D+00 E2=     -0.2923534334D+00
     beta-beta   T2 =       0.1876360134D-01 E2=     -0.4751344844D-01
 ANorm=    0.1069409711D+01
 E2 =    -0.3873803302D+00 EUMP2 =    -0.91938691503589D+03
 Keep R2 and R3 ints in memory in symmetry-blocked form, NReq=20678820.
 CIDS: In Core Option IDoMem=           1.
 Iterations=  50 Convergence= 0.100D-06
 Produce multiple copies of IABC intergrals
 Iteration Nr.   1
 **********************
 DD1Dir will call FoFMem   1 times, MxPair=        56
 NAB=    28 NAA=     0 NBB=     0.
 MP4(R+Q)=  0.12512775D-01
 E3=       -0.33440728D-01        EUMP3=      -0.91942035576D+03
 E4(DQ)=    0.26666778D-02        UMP4(DQ)=   -0.91941768909D+03
 E4(SDQ)=   0.91350060D-03        UMP4(SDQ)=  -0.91941944226D+03
 DE(Corr)= -0.40829256     E(Corr)=     -919.40782727    
 NORM(A)=   0.10778976D+01
 Iteration Nr.   2
 **********************
 DD1Dir will call FoFMem   1 times, MxPair=        56
 NAB=    28 NAA=     0 NBB=     0.
 DE(Corr)= -0.41720101     E(CORR)=     -919.41673571     Delta=-8.91D-03
 NORM(A)=   0.10827662D+01
 Iteration Nr.   3
 **********************
 DD1Dir will call FoFMem   1 times, MxPair=        56
 NAB=    28 NAA=     0 NBB=     0.
 DE(Corr)= -0.41848190     E(CORR)=     -919.41801661     Delta=-1.28D-03
 NORM(A)=   0.10834201D+01
 Iteration Nr.   4
 **********************
 DD1Dir will call FoFMem   1 times, MxPair=        56
 NAB=    28 NAA=     0 NBB=     0.
 DE(Corr)= -0.41902307     E(CORR)=     -919.41855777     Delta=-5.41D-04
 NORM(A)=   0.10836566D+01
 Iteration Nr.   5
 **********************
 DD1Dir will call FoFMem   1 times, MxPair=        56
 NAB=    28 NAA=     0 NBB=     0.
 DE(Corr)= -0.41906887     E(CORR)=     -919.41860358     Delta=-4.58D-05
 NORM(A)=   0.10836963D+01
 Iteration Nr.   6
 **********************
 DD1Dir will call FoFMem   1 times, MxPair=        56
 NAB=    28 NAA=     0 NBB=     0.
 DE(Corr)= -0.41907239     E(CORR)=     -919.41860710     Delta=-3.52D-06
 NORM(A)=   0.10836953D+01
 Iteration Nr.   7
 **********************
 DD1Dir will call FoFMem   1 times, MxPair=        56
 NAB=    28 NAA=     0 NBB=     0.
 DE(Corr)= -0.41907214     E(CORR)=     -919.41860684     Delta= 2.53D-07
 NORM(A)=   0.10836978D+01
 Iteration Nr.   8
 **********************
 DD1Dir will call FoFMem   1 times, MxPair=        56
 NAB=    28 NAA=     0 NBB=     0.
 DE(Corr)= -0.41907174     E(CORR)=     -919.41860645     Delta= 3.99D-07
 NORM(A)=   0.10836977D+01
 Iteration Nr.   9
 **********************
 DD1Dir will call FoFMem   1 times, MxPair=        56
 NAB=    28 NAA=     0 NBB=     0.
 DE(Corr)= -0.41907217     E(CORR)=     -919.41860688     Delta=-4.34D-07
 NORM(A)=   0.10836980D+01
 Iteration Nr.  10
 **********************
 DD1Dir will call FoFMem   1 times, MxPair=        56
 NAB=    28 NAA=     0 NBB=     0.
 DE(Corr)= -0.41907220     E(CORR)=     -919.41860690     Delta=-2.50D-08
 NORM(A)=   0.10836981D+01
 Wavefunction amplitudes converged. E(Corr)=     -919.41860690    
 Largest amplitude= 7.34D-02
 Time for triples=     1279.12 seconds.
 T4(CCSD)= -0.19345182D-01
 T5(CCSD)=  0.21174668D-03
 CCSD(T)= -0.91943774034D+03
 Discarding MO integrals.

 NEF-NEF-NEF-NEF-NEF-NEF-NEF-NEF-NEF-NEF-NEF-NEF-NEF-NEF-NEF-NEF-NEF-NEF-
 NUMERICAL EIGENVECTOR FOLLOWING MINIMUM SEARCH
 GRADIENT ESTIMATION COMPLETE
 Hessian updated using Powell update
 ITERATION   3
 HESSIAN EIGENVECTORS AND EIGENVALUES
                           1
     Eigenvalues --     0.18123
   1         B1         1.00000
 MINIMUM SEARCH. TAKING SIMPLE RFO STEP
 SEARCHING FOR LAMDA THAT MINIMIZES ALONG ALL MODES
 VALUE TAKEN    LAMDA=  -0.00000002
 STEP TAKEN. STEPSIZE IS  0.000323
 Current parameter values (internal coordinates)
    I        X         GRADIENT    DISPLACEMENT       NEWX
    1    3.816166      0.000058     -0.000323      3.815844
         Item               Value     Threshold  Converged?
 Maximum Force            0.000058     0.000450     YES
 RMS     Force            0.000058     0.000300     YES
 Maximum Displacement     0.000323     0.001800     YES
 RMS     Displacement     0.000323     0.001200     YES


 *************************************************
 **  CONVERGENCE CRITERIA APPARENTLY SATISFIED  **
 *************************************************


                       ----------------------------
                       !   Optimized Parameters   !
                       ! (Angstroms and Degrees)  !
 ----------------------                            ----------------------
 !      Name          Value   Derivative information (Atomic Units)     !
 ------------------------------------------------------------------------
 !       B1          2.0194   -DE/DX =    0.0001                        !
 ------------------------------------------------------------------------
 PREDICTED CHANGE IN ENERGY  -0.000000

 NEF-NEF-NEF-NEF-NEF-NEF-NEF-NEF-NEF-NEF-NEF-NEF-NEF-NEF-NEF-NEF-NEF-NEF-
 ---------------------------------------------------------------------------------------------------
                            Z-MATRIX (ANGSTROMS AND DEGREES)
   CD    Cent   Atom    N1       Length/X        N2       Alpha/Y        N3        Beta/Z          J
 ---------------------------------------------------------------------------------------------------
      1      1  Cl
      2      2  Cl       1   2.019428(     1)
 ---------------------------------------------------------------------------------------------------
                         Z-Matrix orientation:                         
 ---------------------------------------------------------------------
 Center     Atomic      Atomic             Coordinates (Angstroms)
 Number     Number       Type             X           Y           Z
 ---------------------------------------------------------------------
      1         17           0        0.000000    0.000000    0.000000
      2         17           0        0.000000    0.000000    2.019428
 ---------------------------------------------------------------------
 Stoichiometry    Cl2
 Framework group  D*H[C*(Cl.Cl)]
 Deg. of freedom     1
 Full point group                 D*H     NOp   8
 Largest Abelian subgroup         D2H     NOp   8
 Largest concise Abelian subgroup C2      NOp   2
                         Standard orientation:                         
 ---------------------------------------------------------------------
 Center     Atomic      Atomic             Coordinates (Angstroms)
 Number     Number       Type             X           Y           Z
 ---------------------------------------------------------------------
      1         17           0        0.000000    0.000000    1.009714
      2         17           0        0.000000    0.000000   -1.009714
 ---------------------------------------------------------------------
 Rotational constants (GHZ):           0.0000000           7.0877587           7.0877587

 **********************************************************************

            Population analysis using the SCF Density.

 **********************************************************************

 Orbital symmetries:
       Occupied  (SGG) (SGU) (SGG) (SGU) (SGG) (SGU) (PIU) (PIU)
                 (PIG) (PIG) (SGG) (SGU) (SGG) (PIU) (PIU) (PIG)
                 (PIG)
       Virtual   (SGU) (SGU) (SGG) (PIU) (PIU) (PIG) (PIG) (SGG)
                 (SGU) (DLTG) (DLTG) (PIU) (PIU) (SGG) (DLTU) (DLTU)
                 (SGU) (PIG) (PIG) (PIU) (PIU) (SGU) (PIG) (PIG)
                 (SGG) (PIU) (PIU) (SGG) (DLTG) (DLTG) (SGG) (DLTU)
                 (DLTU) (PIG) (PIG) (DLTG) (DLTG) (PHIU) (PHIU)
                 (SGU) (PHIG) (PHIG) (PIU) (PIU) (SGU) (DLTU) (DLTU)
                 (SGG) (PIG) (PIG) (SGU) (SGU) (DLTG) (DLTG) (PIU)
                 (PIU) (DLTU) (DLTU) (PIG) (PIG) (PIU) (PIU) (SGG)
                 (SGG) (PIG) (PIG) (SGG) (PIU) (PIU) (DLTG) (DLTG)
                 (PHIU) (PHIU) (PHIG) (PHIG) (DLTU) (DLTU) (SGU)
                 (PIG) (PIG) (SGU) (SGG) (SGU)
 The electronic state is 1-SGG.
 Alpha  occ. eigenvalues -- -104.90244-104.90243 -10.62274 -10.62259  -8.08973
 Alpha  occ. eigenvalues --   -8.08952  -8.08662  -8.08662  -8.08662  -8.08662
 Alpha  occ. eigenvalues --   -1.21096  -1.01894  -0.59211  -0.56641  -0.56641
 Alpha  occ. eigenvalues --   -0.44753  -0.44753
 Alpha virt. eigenvalues --    0.01719   0.09702   0.10789   0.11150   0.11150
 Alpha virt. eigenvalues --    0.13903   0.13903   0.14041   0.25245   0.29516
 Alpha virt. eigenvalues --    0.29516   0.33329   0.33329   0.40470   0.41284
 Alpha virt. eigenvalues --    0.41284   0.49377   0.50976   0.50976   0.60807
 Alpha virt. eigenvalues --    0.60807   0.69662   0.72037   0.72037   0.75861
 Alpha virt. eigenvalues --    0.80359   0.80359   0.82965   0.86616   0.86616
 Alpha virt. eigenvalues --    0.88825   0.93804   0.93804   1.02221   1.02221
 Alpha virt. eigenvalues --    1.10209   1.10209   1.10545   1.10545   1.12704
 Alpha virt. eigenvalues --    1.25076   1.25076   1.38459   1.38459   1.38665
 Alpha virt. eigenvalues --    1.47679   1.47679   1.70292   1.71604   1.71604
 Alpha virt. eigenvalues --    1.94260   2.44358   2.45637   2.45637   2.47463
 Alpha virt. eigenvalues --    2.47463   2.53718   2.53718   2.60068   2.60068
 Alpha virt. eigenvalues --    2.63201   2.63201   2.64203   2.85725   2.89483
 Alpha virt. eigenvalues --    2.89483   2.96192   2.97097   2.97097   3.00689
 Alpha virt. eigenvalues --    3.00689   3.00786   3.00786   3.06506   3.06506
 Alpha virt. eigenvalues --    3.14024   3.14024   3.25068   3.35652   3.35652
 Alpha virt. eigenvalues --    4.29278   5.45599   6.89285
          Condensed to atoms (all electrons):
               1          2
     1  Cl  16.945546   0.054454
     2  Cl   0.054454  16.945546
 Mulliken charges:
               1
     1  Cl  -0.000000
     2  Cl  -0.000000
 Sum of Mulliken charges =  -0.00000
 Mulliken charges with hydrogens summed into heavy atoms:
               1
     1  Cl  -0.000000
     2  Cl  -0.000000
 Electronic spatial extent (au):  <R**2>=            178.3828
 Charge=              0.0000 electrons
 Dipole moment (field-independent basis, Debye):
    X=             -0.0000    Y=              0.0000    Z=             -0.0000  Tot=              0.0000
 Quadrupole moment (field-independent basis, Debye-Ang):
   XX=            -25.5537   YY=            -25.5537   ZZ=            -22.3264
   XY=              0.0000   XZ=              0.0000   YZ=              0.0000
 Traceless Quadrupole moment (field-independent basis, Debye-Ang):
   XX=             -1.0758   YY=             -1.0758   ZZ=              2.1515
   XY=              0.0000   XZ=              0.0000   YZ=              0.0000
 Octapole moment (field-independent basis, Debye-Ang**2):
  XXX=             -0.0000  YYY=              0.0000  ZZZ=              0.0000  XYY=             -0.0000
  XXY=              0.0000  XXZ=             -0.0000  XZZ=             -0.0000  YZZ=             -0.0000
  YYZ=             -0.0000  XYZ=              0.0000
 Hexadecapole moment (field-independent basis, Debye-Ang**3):
 XXXX=            -28.6876 YYYY=            -28.6876 ZZZZ=           -154.4147 XXXY=              0.0000
 XXXZ=              0.0000 YYYX=              0.0000 YYYZ=              0.0000 ZZZX=              0.0000
 ZZZY=              0.0000 XXYY=             -9.5625 XXZZ=            -35.6565 YYZZ=            -35.6565
 XXYZ=              0.0000 YYXZ=              0.0000 ZZXY=             -0.0000
 N-N= 7.573044888280D+01 E-N=-2.339466283711D+03  KE= 9.188662451726D+02
 Symmetry AG   KE= 3.693483761005D+02
 Symmetry B1G  KE= 5.518737654939D-34
 Symmetry B2G  KE= 4.634000979607D+01
 Symmetry B3G  KE= 4.634000979607D+01
 Symmetry AU   KE= 4.091529865635D-33
 Symmetry B1U  KE= 3.656571494708D+02
 Symmetry B2U  KE= 4.559035000460D+01
 Symmetry B3U  KE= 4.559035000460D+01
 Unable to Open any file for archive entry.
 1\1\GINC-CFF052\FOpt\RCCSD(T)-FC\Aug-CC-pVTZ\Cl2\EMMANOUS\13-Jul-2023\
 1\\#n CCSD(T)/aug-cc-pVTZ Opt\\Title\\0,1\Cl\Cl,1,B1\\B1=2.01942833\\V
 ersion=ES64L-G16RevC.01\State=1-SGG\HF=-918.9995379\MP2=-919.3869167\M
 P3=-919.4203565\MP4D=-919.430202\MP4DQ=-919.41769\MP4SDQ=-919.419443\C
 CSD=-919.4186077\CCSD(T)=-919.4377404\RMSD=1.767e-09\RMSF=5.845e-05\PG
 =D*H [C*(Cl1.Cl1)]\\@
 The archive entry for this job was punched.


 ALL OUR THINKING ABOUT NATURE MUST NECESSARILY MOVE IN CIRCLES OR SPIRALS;
 FOR WE CAN ONLY UNDERSTAND NATURE IF WE THINK ABOUT HER, AND WE CAN ONLY
 THINK BECAUSE OUR BRAIN IS BUILT IN ACCORDANCE WITH NATURE'S LAWS.

                                             -- TIMOTHY FERRIS, "GALAXIES"
 Job cpu time:       0 days  2 hours 46 minutes 51.9 seconds.
 Elapsed time:       0 days  0 hours 11 minutes  1.7 seconds.
 File lengths (MBytes):  RWF=     88 Int=      0 D2E=      0 Chk=      2 Scr=      1
 Normal termination of Gaussian 16 at Thu Jul 13 08:16:55 2023.
