
 Working directory              : /scratch/emmanous/3821507.pbs01/molpro.CaLAT5VUX6/
 Global scratch directory       : /scratch/emmanous/3821507.pbs01/molpro.CaLAT5VUX6/
 Wavefunction directory         : /home/emmanous/wfu/
 Main file repository           : /scratch/emmanous/3821507.pbs01/molpro.CaLAT5VUX6/

 id        : wis

 Nodes     nprocs
 cff051      16
 GA implementation: MPI file
 GA implementation (serial work in mppx): MPI file

 Using DEFAULT tuning parameter for ncache   :   16384
 Using DEFAULT tuning parameter for mflopdgm :   10000
 Using DEFAULT tuning parameter for mflopdgv :    4000
 Using DEFAULT tuning parameter for mflopmxm :    5000
 Using DEFAULT tuning parameter for mflopmxv :    4000
 Using DEFAULT tuning parameter for mindgm   :       1
 Using DEFAULT tuning parameter for mindgc   :       4
 Using DEFAULT tuning parameter for mindgf   :    5000
 Using DEFAULT tuning parameter for mindgl   :       4
 Using DEFAULT tuning parameter for mindgr   :       1
 Using DEFAULT tuning parameter for mindgv   :      20
 Using DEFAULT tuning parameter for mincuda  :     500
 Using DEFAULT tuning parameter for mxmblk   :      64
 Using DEFAULT tuning parameter for mxmbln   :      64
 Using DEFAULT tuning parameter for nroll    :       2
 Using custom tuning parameter for ngpus     :       0
 Using customized tuning parameters: mindgm=1; mindgv=20; mindgc=4; mindgr=1; noblas=0; minvec=7

 Fortran compiler: integer size=8, double size=8, logical size=8
 default implementation of scratch files=sf  


 Variables initialized (1025), CPU time= 0.01 sec
 gprint,basis
 gthresh,energy=1d-9
 ANGSTROM
 geomtyp=xyz
 charge=0
 multiplicity=1
 nosym
 geom={
 Cl ,0.0000 ,0.0000 ,0.0000
 Cl ,0.0000 ,0.0000 ,1.9879
 }
 
 basis={
 default,aug-cc-pVTZ
 set,jk
 default,aug-cc-pVTZ/JKFIT
 }
 {df-hf,df_basis=jk
 wf,,,$multiplicity-1
 print,orbitals
 maxit,300}
 Commands initialized (840), CPU time= 0.01 sec, 684 directives.
 Default parameters read. Elapsed time= 0.08 sec

 Using DEFAULT tuning parameter for mpplat   :       3
 Using DEFAULT tuning parameter for mppspeed :    1600
 Checking input...
 Passed
1


                                         ***  PROGRAM SYSTEM MOLPRO  ***
                                       Copyright, TTI GmbH Stuttgart, 2015
                                    Version 2022.3 linked Wed Nov 30 13:40:34 2022


 **********************************************************************************************************************************
 LABEL *                                                                                 
  64 bit mpp version                                                                     DATE: 13-Jul-23          TIME: 09:15:13  
 **********************************************************************************************************************************

 SHA1:             e31ec9a5ea85254ab76f59d122cbdd51c71cf98b
 **********************************************************************************************************************************

 Memory per process:      1000 MW
 Total memory per node:  16000 MW

 GA preallocation disabled
 GA check disabled

 Variable memory set to 1000.0 MW



 THRESHOLDS:

 ZERO    =  1.00D-12  ONEINT  =  1.00D-12  TWOINT  =  1.00D-11  PREFAC  =  1.00D-14  XXXXXX  =  1.00D-09  EORDER  =  1.00D-04
 ENERGY  =  1.00D-09  ETEST   =  0.00D+00  EDENS   =  0.00D+00  THRDEDEF=  1.00D-06  GRADIENT=  1.00D-05  STEP    =  1.00D-03
 ORBITAL =  1.00D-05  CIVEC   =  1.00D-05  COEFF   =  1.00D-04  PRINTCI =  5.00D-02  PUNCHCI =  9.90D+01  OPTGRAD =  3.00D-04
 OPTENERG=  1.00D-06  OPTSTEP =  3.00D-04  THRGRAD =  1.00D-10  COMPRESS=  1.00D-11  VARMIN  =  1.00D-07  VARMAX  =  1.00D-03
 THRDOUB =  0.00D+00  THRDIV  =  1.00D-05  THRRED  =  1.00D-07  THRPSP  =  1.00D+00  THRDC   =  1.00D-10  THRCS   =  1.00D-10
 THRNRM  =  1.00D-08  THREQ   =  0.00D+00  THRDE   =  1.00D+00  THRREF  =  1.00D-05  SPARFAC =  1.00D+00  THRDLP  =  1.00D-07
 THRDIA  =  1.00D-10  THRDLS  =  1.00D-07  THRGPS  =  0.00D+00  THRKEX  =  0.00D+00  THRDIS  =  2.00D-01  THRVAR  =  1.00D-10
 THRLOC  =  1.00D-06  THRGAP  =  1.00D-06  THRLOCT = -1.00D+00  THRGAPT = -1.00D+00  THRORB  =  1.00D-06  THRMLTP =  0.00D+00
 THRCPQCI=  1.00D-10  KEXTA   =  0.00D+00  THRCOARS=  0.00D+00  SYMTOL  =  1.00D-06  GRADTOL =  1.00D-06  THROVL  =  1.00D-08
 THRORTH =  1.00D-08  THRDLOVL= -1.00D+00  GRID    =  1.00D-06  GRIDMAX =  1.00D-03  DTMAX   =  0.00D+00  THROCCDE=  1.00D-01
 THROCCDE=  1.00D-01  THRPRINT=  2.50D-01

 SETTING GEOMTYP        =    XYZ
 SETTING CHARGE         =      0.0000000D+00                                  
 SETTING MULTIPLICITY   =         1.00000000                                  
 ZSYMEL=NOSYM
 ZUNIT=ANG

 SETTING BASIS          =    AUG-CC-PVTZ


 Recomputing integrals since basis changed


 Using spherical harmonics

 Library entry CL     S aug-cc-pVTZ          selected for orbital group  1
 Library entry CL     P aug-cc-pVTZ          selected for orbital group  1
 Library entry CL     D aug-cc-pVTZ          selected for orbital group  1
 Library entry CL     F aug-cc-pVTZ          selected for orbital group  1


 PROGRAM * SEWARD (Integral evaluation for generally contracted gaussian basis sets)     Author: Roland Lindh, 1990

 Geometry written to block  1 of record 700


 Point group  C1  



 ATOMIC COORDINATES

 NR  ATOM    CHARGE       X              Y              Z

   1  CL     17.00    0.000000000    0.000000000    0.000000000
   2  CL     17.00    0.000000000    0.000000000    3.756586563

 Bond lengths in Bohr (Angstrom)

 1-2  3.756586563
     ( 1.987900000)


 BASIS DATA

   Nr Sym  Nuc  Type         Exponents   Contraction coefficients

    1.1 A     1  1s      456100.000000     0.000049   -0.000014    0.000004    0.000000    0.000000
    2.1 A                 68330.000000     0.000383   -0.000107    0.000032    0.000000    0.000000
    3.1 A                 15550.000000     0.002009   -0.000565    0.000171    0.000000    0.000000
    4.1 A                  4405.000000     0.008386   -0.002361    0.000714    0.000000    0.000000
    5.1 A                  1439.000000     0.029470   -0.008459    0.002567    0.000000    0.000000
                            520.400000     0.087832   -0.025964    0.007886    0.000000    0.000000
                            203.100000     0.211473   -0.068636    0.021087    0.000000    0.000000
                             83.960000     0.365364   -0.141874    0.044226    0.000000    0.000000
                             36.200000     0.340884   -0.199319    0.065167    0.000000    0.000000
                             15.830000     0.102133   -0.019566    0.006030    0.000000    0.000000
                              6.334000     0.003117    0.499741   -0.206495    0.000000    0.000000
                              2.694000     0.001058    0.563736   -0.405871    0.000000    0.000000
                              0.976800    -0.000378    0.079033    0.075956    1.000000    0.000000
                              0.431300     0.000156   -0.008351    0.725661    0.000000    0.000000
                              0.162500    -0.000051    0.002325    0.394423    0.000000    1.000000
    6.1 A     1  1s           0.059100     1.000000
    7.1 A     1  2px        663.300000     0.002404
                            156.800000     0.019215
                             49.980000     0.088510
                             18.420000     0.256020
                              7.240000     0.436927
                              2.922000     0.350334
                              1.022000     0.058549
                              0.381800    -0.004584
                              0.130100     0.002270
    8.1 A     1  2py        663.300000     0.002404
                            156.800000     0.019215
                             49.980000     0.088510
                             18.420000     0.256020
                              7.240000     0.436927
                              2.922000     0.350334
                              1.022000     0.058549
                              0.381800    -0.004584
                              0.130100     0.002270
    9.1 A     1  2pz        663.300000     0.002404
                            156.800000     0.019215
                             49.980000     0.088510
                             18.420000     0.256020
                              7.240000     0.436927
                              2.922000     0.350334
                              1.022000     0.058549
                              0.381800    -0.004584
                              0.130100     0.002270
   10.1 A     1  2px        663.300000    -0.000652
                            156.800000    -0.005194
                             49.980000    -0.024694
                             18.420000    -0.072817
                              7.240000    -0.134030
                              2.922000    -0.094774
                              1.022000     0.262289
                              0.381800     0.564667
                              0.130100     0.341250
   11.1 A     1  2py        663.300000    -0.000652
                            156.800000    -0.005194
                             49.980000    -0.024694
                             18.420000    -0.072817
                              7.240000    -0.134030
                              2.922000    -0.094774
                              1.022000     0.262289
                              0.381800     0.564667
                              0.130100     0.341250
   12.1 A     1  2pz        663.300000    -0.000652
                            156.800000    -0.005194
                             49.980000    -0.024694
                             18.420000    -0.072817
                              7.240000    -0.134030
                              2.922000    -0.094774
                              1.022000     0.262289
                              0.381800     0.564667
                              0.130100     0.341250
   13.1 A     1  2px        663.300000     0.000000
                            156.800000     0.000000
                             49.980000     0.000000
                             18.420000     0.000000
                              7.240000     0.000000
                              2.922000     0.000000
                              1.022000     1.000000
                              0.381800     0.000000
                              0.130100     0.000000
   14.1 A     1  2py        663.300000     0.000000
                            156.800000     0.000000
                             49.980000     0.000000
                             18.420000     0.000000
                              7.240000     0.000000
                              2.922000     0.000000
                              1.022000     1.000000
                              0.381800     0.000000
                              0.130100     0.000000
   15.1 A     1  2pz        663.300000     0.000000
                            156.800000     0.000000
                             49.980000     0.000000
                             18.420000     0.000000
                              7.240000     0.000000
                              2.922000     0.000000
                              1.022000     1.000000
                              0.381800     0.000000
                              0.130100     0.000000
   16.1 A     1  2px        663.300000     0.000000
                            156.800000     0.000000
                             49.980000     0.000000
                             18.420000     0.000000
                              7.240000     0.000000
                              2.922000     0.000000
                              1.022000     0.000000
                              0.381800     0.000000
                              0.130100     1.000000
   17.1 A     1  2py        663.300000     0.000000
                            156.800000     0.000000
                             49.980000     0.000000
                             18.420000     0.000000
                              7.240000     0.000000
                              2.922000     0.000000
                              1.022000     0.000000
                              0.381800     0.000000
                              0.130100     1.000000
   18.1 A     1  2pz        663.300000     0.000000
                            156.800000     0.000000
                             49.980000     0.000000
                             18.420000     0.000000
                              7.240000     0.000000
                              2.922000     0.000000
                              1.022000     0.000000
                              0.381800     0.000000
                              0.130100     1.000000
   19.1 A     1  2px          0.041900     1.000000
   20.1 A     1  2py          0.041900     1.000000
   21.1 A     1  2pz          0.041900     1.000000
   22.1 A     1  3d0          1.046000     1.000000
   23.1 A     1  3d2-         1.046000     1.000000
   24.1 A     1  3d1+         1.046000     1.000000
   25.1 A     1  3d2+         1.046000     1.000000
   26.1 A     1  3d1-         1.046000     1.000000
   27.1 A     1  3d0          0.344000     1.000000
   28.1 A     1  3d2-         0.344000     1.000000
   29.1 A     1  3d1+         0.344000     1.000000
   30.1 A     1  3d2+         0.344000     1.000000
   31.1 A     1  3d1-         0.344000     1.000000
   32.1 A     1  3d0          0.135000     1.000000
   33.1 A     1  3d2-         0.135000     1.000000
   34.1 A     1  3d1+         0.135000     1.000000
   35.1 A     1  3d2+         0.135000     1.000000
   36.1 A     1  3d1-         0.135000     1.000000
   37.1 A     1  4f1+         0.706000     1.000000
   38.1 A     1  4f1-         0.706000     1.000000
   39.1 A     1  4f0          0.706000     1.000000
   40.1 A     1  4f3+         0.706000     1.000000
   41.1 A     1  4f2-         0.706000     1.000000
   42.1 A     1  4f3-         0.706000     1.000000
   43.1 A     1  4f2+         0.706000     1.000000
   44.1 A     1  4f1+         0.312000     1.000000
   45.1 A     1  4f1-         0.312000     1.000000
   46.1 A     1  4f0          0.312000     1.000000
   47.1 A     1  4f3+         0.312000     1.000000
   48.1 A     1  4f2-         0.312000     1.000000
   49.1 A     1  4f3-         0.312000     1.000000
   50.1 A     1  4f2+         0.312000     1.000000
   51.1 A     2  1s      456100.000000     0.000049   -0.000014    0.000004    0.000000    0.000000
   52.1 A                 68330.000000     0.000383   -0.000107    0.000032    0.000000    0.000000
   53.1 A                 15550.000000     0.002009   -0.000565    0.000171    0.000000    0.000000
   54.1 A                  4405.000000     0.008386   -0.002361    0.000714    0.000000    0.000000
   55.1 A                  1439.000000     0.029470   -0.008459    0.002567    0.000000    0.000000
                            520.400000     0.087832   -0.025964    0.007886    0.000000    0.000000
                            203.100000     0.211473   -0.068636    0.021087    0.000000    0.000000
                             83.960000     0.365364   -0.141874    0.044226    0.000000    0.000000
                             36.200000     0.340884   -0.199319    0.065167    0.000000    0.000000
                             15.830000     0.102133   -0.019566    0.006030    0.000000    0.000000
                              6.334000     0.003117    0.499741   -0.206495    0.000000    0.000000
                              2.694000     0.001058    0.563736   -0.405871    0.000000    0.000000
                              0.976800    -0.000378    0.079033    0.075956    1.000000    0.000000
                              0.431300     0.000156   -0.008351    0.725661    0.000000    0.000000
                              0.162500    -0.000051    0.002325    0.394423    0.000000    1.000000
   56.1 A     2  1s           0.059100     1.000000
   57.1 A     2  2px        663.300000     0.002404
                            156.800000     0.019215
                             49.980000     0.088510
                             18.420000     0.256020
                              7.240000     0.436927
                              2.922000     0.350334
                              1.022000     0.058549
                              0.381800    -0.004584
                              0.130100     0.002270
   58.1 A     2  2py        663.300000     0.002404
                            156.800000     0.019215
                             49.980000     0.088510
                             18.420000     0.256020
                              7.240000     0.436927
                              2.922000     0.350334
                              1.022000     0.058549
                              0.381800    -0.004584
                              0.130100     0.002270
   59.1 A     2  2pz        663.300000     0.002404
                            156.800000     0.019215
                             49.980000     0.088510
                             18.420000     0.256020
                              7.240000     0.436927
                              2.922000     0.350334
                              1.022000     0.058549
                              0.381800    -0.004584
                              0.130100     0.002270
   60.1 A     2  2px        663.300000    -0.000652
                            156.800000    -0.005194
                             49.980000    -0.024694
                             18.420000    -0.072817
                              7.240000    -0.134030
                              2.922000    -0.094774
                              1.022000     0.262289
                              0.381800     0.564667
                              0.130100     0.341250
   61.1 A     2  2py        663.300000    -0.000652
                            156.800000    -0.005194
                             49.980000    -0.024694
                             18.420000    -0.072817
                              7.240000    -0.134030
                              2.922000    -0.094774
                              1.022000     0.262289
                              0.381800     0.564667
                              0.130100     0.341250
   62.1 A     2  2pz        663.300000    -0.000652
                            156.800000    -0.005194
                             49.980000    -0.024694
                             18.420000    -0.072817
                              7.240000    -0.134030
                              2.922000    -0.094774
                              1.022000     0.262289
                              0.381800     0.564667
                              0.130100     0.341250
   63.1 A     2  2px        663.300000     0.000000
                            156.800000     0.000000
                             49.980000     0.000000
                             18.420000     0.000000
                              7.240000     0.000000
                              2.922000     0.000000
                              1.022000     1.000000
                              0.381800     0.000000
                              0.130100     0.000000
   64.1 A     2  2py        663.300000     0.000000
                            156.800000     0.000000
                             49.980000     0.000000
                             18.420000     0.000000
                              7.240000     0.000000
                              2.922000     0.000000
                              1.022000     1.000000
                              0.381800     0.000000
                              0.130100     0.000000
   65.1 A     2  2pz        663.300000     0.000000
                            156.800000     0.000000
                             49.980000     0.000000
                             18.420000     0.000000
                              7.240000     0.000000
                              2.922000     0.000000
                              1.022000     1.000000
                              0.381800     0.000000
                              0.130100     0.000000
   66.1 A     2  2px        663.300000     0.000000
                            156.800000     0.000000
                             49.980000     0.000000
                             18.420000     0.000000
                              7.240000     0.000000
                              2.922000     0.000000
                              1.022000     0.000000
                              0.381800     0.000000
                              0.130100     1.000000
   67.1 A     2  2py        663.300000     0.000000
                            156.800000     0.000000
                             49.980000     0.000000
                             18.420000     0.000000
                              7.240000     0.000000
                              2.922000     0.000000
                              1.022000     0.000000
                              0.381800     0.000000
                              0.130100     1.000000
   68.1 A     2  2pz        663.300000     0.000000
                            156.800000     0.000000
                             49.980000     0.000000
                             18.420000     0.000000
                              7.240000     0.000000
                              2.922000     0.000000
                              1.022000     0.000000
                              0.381800     0.000000
                              0.130100     1.000000
   69.1 A     2  2px          0.041900     1.000000
   70.1 A     2  2py          0.041900     1.000000
   71.1 A     2  2pz          0.041900     1.000000
   72.1 A     2  3d0          1.046000     1.000000
   73.1 A     2  3d2-         1.046000     1.000000
   74.1 A     2  3d1+         1.046000     1.000000
   75.1 A     2  3d2+         1.046000     1.000000
   76.1 A     2  3d1-         1.046000     1.000000
   77.1 A     2  3d0          0.344000     1.000000
   78.1 A     2  3d2-         0.344000     1.000000
   79.1 A     2  3d1+         0.344000     1.000000
   80.1 A     2  3d2+         0.344000     1.000000
   81.1 A     2  3d1-         0.344000     1.000000
   82.1 A     2  3d0          0.135000     1.000000
   83.1 A     2  3d2-         0.135000     1.000000
   84.1 A     2  3d1+         0.135000     1.000000
   85.1 A     2  3d2+         0.135000     1.000000
   86.1 A     2  3d1-         0.135000     1.000000
   87.1 A     2  4f1+         0.706000     1.000000
   88.1 A     2  4f1-         0.706000     1.000000
   89.1 A     2  4f0          0.706000     1.000000
   90.1 A     2  4f3+         0.706000     1.000000
   91.1 A     2  4f2-         0.706000     1.000000
   92.1 A     2  4f3-         0.706000     1.000000
   93.1 A     2  4f2+         0.706000     1.000000
   94.1 A     2  4f1+         0.312000     1.000000
   95.1 A     2  4f1-         0.312000     1.000000
   96.1 A     2  4f0          0.312000     1.000000
   97.1 A     2  4f3+         0.312000     1.000000
   98.1 A     2  4f2-         0.312000     1.000000
   99.1 A     2  4f3-         0.312000     1.000000
  100.1 A     2  4f2+         0.312000     1.000000

 NUCLEAR CHARGE:                   34
 NUMBER OF PRIMITIVE AOS:         168
 NUMBER OF SYMMETRY AOS:          150
 NUMBER OF CONTRACTIONS:          100   (  100A   )
 NUMBER OF INNER CORE ORBITALS:     2   (    2A   )
 NUMBER OF OUTER CORE ORBITALS:     8   (    8A   )
 NUMBER OF VALENCE ORBITALS:        8   (    8A   )


 NUCLEAR REPULSION ENERGY   76.93154281


 Library entry CL     S aug-cc-pVTZ-JKFI     selected for JK group  1
 Library entry CL     P aug-cc-pVTZ-JKFI     selected for JK group  1
 Library entry CL     D aug-cc-pVTZ-JKFI     selected for JK group  1
 Library entry CL     F aug-cc-pVTZ-JKFI     selected for JK group  1
 Library entry CL     G aug-cc-pVTZ-JKFI     selected for JK group  1
 Basis set:    JK
 Basis size:   292
 Sphericals:   T
 =======================================
 Centre l       exponent    contractions
 =======================================

    1   s    7082.797058      1.000000
    1   s    2109.309508      1.000000
    1   s     768.412819      1.000000
    1   s     284.792554      1.000000
    1   s     116.553317      1.000000
    1   s      46.394821      1.000000
    1   s      21.956303      1.000000
    1   s       9.993027      1.000000
    1   s       4.719946      1.000000
    1   s       2.657340      1.000000
    1   s       1.081348      1.000000
    1   s       0.531547      1.000000
    1   s       0.233670      1.000000
    1   s       0.102723      1.000000

    1   p     973.735285      1.000000
    1   p     278.991093      1.000000
    1   p     105.886445      1.000000
    1   p      45.231847      1.000000
    1   p      20.289166      1.000000
    1   p       9.582938      1.000000
    1   p       4.464168      1.000000
    1   p       2.362561      1.000000
    1   p       1.149196      1.000000
    1   p       0.603102      1.000000
    1   p       0.305909      1.000000
    1   p       0.155165      1.000000

    1   d     204.380301      1.000000
    1   d      63.693893      1.000000
    1   d      25.726669      1.000000
    1   d      11.602467      1.000000
    1   d       5.457454      1.000000
    1   d       2.883840      1.000000
    1   d       1.339402      1.000000
    1   d       0.616492      1.000000
    1   d       0.274701      1.000000
    1   d       0.122404      1.000000

    1   f       4.204066      1.000000
    1   f       1.201162      1.000000
    1   f       0.499162      1.000000
    1   f       0.207435      1.000000

    1   g       0.861162      1.000000
    1   g       0.344465      1.000000

    2   s    7082.797058      1.000000
    2   s    2109.309508      1.000000
    2   s     768.412819      1.000000
    2   s     284.792554      1.000000
    2   s     116.553317      1.000000
    2   s      46.394821      1.000000
    2   s      21.956303      1.000000
    2   s       9.993027      1.000000
    2   s       4.719946      1.000000
    2   s       2.657340      1.000000
    2   s       1.081348      1.000000
    2   s       0.531547      1.000000
    2   s       0.233670      1.000000
    2   s       0.102723      1.000000

    2   p     973.735285      1.000000
    2   p     278.991093      1.000000
    2   p     105.886445      1.000000
    2   p      45.231847      1.000000
    2   p      20.289166      1.000000
    2   p       9.582938      1.000000
    2   p       4.464168      1.000000
    2   p       2.362561      1.000000
    2   p       1.149196      1.000000
    2   p       0.603102      1.000000
    2   p       0.305909      1.000000
    2   p       0.155165      1.000000

    2   d     204.380301      1.000000
    2   d      63.693893      1.000000
    2   d      25.726669      1.000000
    2   d      11.602467      1.000000
    2   d       5.457454      1.000000
    2   d       2.883840      1.000000
    2   d       1.339402      1.000000
    2   d       0.616492      1.000000
    2   d       0.274701      1.000000
    2   d       0.122404      1.000000

    2   f       4.204066      1.000000
    2   f       1.201162      1.000000
    2   f       0.499162      1.000000
    2   f       0.207435      1.000000

    2   g       0.861162      1.000000
    2   g       0.344465      1.000000
 =======================================


 **********************************************************************************************************************************

 EXTRA SYMMETRY OF AOS IN SYMMETRY 1:   1 1 1 1 1 1 2 3 1 2   3 1 2 3 1 2 3 1 2 3   1 1 4 2 5 3 1 4 2 5   3 1 4 2 5 3 2 3 1 6
                                        4 7 5 2 3 1 6 4 7 5   1 1 1 1 1 1 2 3 1 2   3 1 2 3 1 2 3 1 2 3   1 1 4 2 5 3 1 4 2 5
                                        3 1 4 2 5 3 2 3 1 6   4 7 5 2 3 1 6 4 7 5

 Eigenvalues of metric

         1 0.396E-03 0.248E-02 0.471E-02 0.778E-02 0.812E-02 0.119E-01 0.119E-01 0.211E-01


 OPERATOR DM      FOR CENTER  0  COORDINATES:    0.000000    0.000000    0.000000


 **********************************************************************************************************************************
 DATASETS  * FILE   NREC   LENGTH (MB)   RECORD NAMES
              1      18       28.95       500      610      700      900      950      970     1000      129      960     1100   
                                          VAR    BASINP    GEOM    SYMINP    ZMAT    AOBASIS   BASIS     P2S    ABASIS      S 
                                         1400     1410     1200     1210     1080     1600     1650     1700   
                                           T        V       H0       H01     AOSYM     SMH    MOLCAS    OPER   

 PROGRAMS   *        TOTAL       INT
 CPU TIMES  *         0.37      0.23
 REAL TIME  *         1.02 SEC
 DISK USED  *        29.25 MB (local),      468.02 MB (total)
 GA USED    *         0.00 MB       (max)       0.00 MB       (current)
 **********************************************************************************************************************************


 Program * Restricted Hartree-Fock

 Coulomb and exchange fitting
 Thresholds for fitting:       THRAO_COUL= 1.0D-15    THRAO_EXCH= 1.0D-13    THRMO= 1.0D-12    THRPROD= 1.0D-12    THRASM= 1.0D-12
                               THR2HLF=    1.0D-12

 Basis set JK loaded. Number of basis functions: 292

 Orbital guess generated from atomic densities. Full valence occupancy:   18
 Using density fitting in orbital guess


 Initial occupancy:  17

 NELEC=   34   SYM=1   MS2= 0   THRE=1.0D-11   THRD=1.0D-06   THRG=1.0D-06  HFMA2=F  DIIS_START=2   DIIS_MAX=10   DIIS_INCORE=F

 Level shifts:    0.00 (CLOSED)    0.00 (OPEN)    0.30 (GAP_MIN)

 ITER           ETOT              DE          GRAD        DDIFF     DIIS  NEXP   TIME(IT)  TIME(TOT)  DIAG
   1     -918.98143312    -918.98143312     0.00D+00     0.11D+00     0     0       0.01      0.03    start
   2     -918.99702195      -0.01558883     0.34D-02     0.39D-02     1     0       0.01      0.04    diag
   3     -918.99977719      -0.00275524     0.14D-02     0.11D-02     2     0       0.01      0.05    diag
   4     -918.99997886      -0.00020167     0.25D-03     0.22D-03     3     0       0.02      0.07    diag
   5     -918.99998878      -0.00000992     0.50D-04     0.61D-04     4     0       0.01      0.08    diag
   6     -918.99998885      -0.00000007     0.49D-05     0.79D-05     5     0       0.01      0.09    diag
   7     -918.99998885      -0.00000000     0.11D-05     0.15D-05     6     0       0.01      0.10    diag
   8     -918.99998885      -0.00000000     0.16D-06     0.36D-06     7     0       0.01      0.11    fixocc
   9     -918.99998885      -0.00000000     0.17D-07     0.32D-07     8     0       0.01      0.12    diag
  10     -918.99998885       0.00000000     0.27D-08     0.49D-08     0     0       0.01      0.13    diag/orth

 Final occupancy:  17

 !RHF STATE 1.1 Energy               -918.999988849892
  RHF One-electron energy           -1423.008862092471
  RHF Two-electron energy             427.077330433097
  RHF Kinetic energy                  918.920007658078
  RHF Nuclear energy                   76.931542809481
  RHF Virial quotient                  -1.000087038253

 !RHF STATE 1.1 Dipole moment          -0.00000000     0.00000000    -0.00000000
 Dipole moment /Debye                  -0.00000000     0.00000000    -0.00000000

 ELECTRON ORBITALS
 =================

  Orbital  Occupation    Energy    Cen Mu Typ  Coefficients
    1.1     2.00000  -104.90082     1  1  s    0.70711    2  1  s    0.70711
    2.1     2.00000  -104.90082     1  1  s    0.70711    2  1  s   -0.70711
    3.1     2.00000   -10.62163     1  2  s    0.70686    2  2  s    0.70686
    4.1     2.00000   -10.62147     1  2  s    0.70676    2  2  s   -0.70676
    5.1     2.00000    -8.08870     1  1  pz   0.70565    2  1  pz  -0.70565
    6.1     2.00000    -8.08846     1  1  pz   0.70330    2  1  pz   0.70330
    7.1     2.00000    -8.08552     1  1  py   0.69825    2  1  py   0.69825
    8.1     2.00000    -8.08552     1  1  px   0.69825    2  1  px   0.69825
    9.1     2.00000    -8.08552     1  1  px  -0.25412    1  1  py   0.66019    2  1  px   0.25412    2  1  py  -0.66019
   10.1     2.00000    -8.08552     1  1  px   0.66019    1  1  py   0.25412    2  1  px  -0.66019    2  1  py  -0.25412
   11.1     2.00000    -1.22023     1  3  s    0.65766    2  3  s    0.65766
   12.1     2.00000    -1.01534     1  3  s    0.71704    2  3  s   -0.71704
   13.1     2.00000    -0.59785     1  2  pz   0.67734    2  2  pz  -0.67734
   14.1     2.00000    -0.57061     1  2  py   0.64355    2  2  py   0.64355
   15.1     2.00000    -0.57061     1  2  px   0.64355    2  2  px   0.64355
   16.1     2.00000    -0.44424     1  2  px   0.63733    1  2  py   0.38197    2  2  px  -0.63733    2  2  py  -0.38197
   17.1     2.00000    -0.44424     1  2  px  -0.38197    1  2  py   0.63733    2  2  px   0.38197    2  2  py  -0.63733


 HOMO     17.1    -0.444236 =     -12.0883eV
 LUMO     18.1     0.024846 =       0.6761eV
 LUMO-HOMO         0.469082 =      12.7644eV

 Orbitals saved in record  2100.2


 **********************************************************************************************************************************
 DATASETS  * FILE   NREC   LENGTH (MB)   RECORD NAMES
              1      18       28.95       500      610      700      900      950      970     1000      129      960     1100   
                                          VAR    BASINP    GEOM    SYMINP    ZMAT    AOBASIS   BASIS     P2S    ABASIS      S 
                                         1400     1410     1200     1210     1080     1600     1650     1700   
                                           T        V       H0       H01     AOSYM     SMH    MOLCAS    OPER   

              2       4        0.53       700     1000      520     2100   
                                         GEOM     BASIS   MCVARS     RHF  

 PROGRAMS   *        TOTAL     DF-HF       INT
 CPU TIMES  *         0.58      0.21      0.23
 REAL TIME  *         1.80 SEC
 DISK USED  *        30.19 MB (local),      483.06 MB (total)
 SF USED    *         4.01 MB
 GA USED    *         0.00 MB       (max)       0.00 MB       (current)
 **********************************************************************************************************************************

 DF-HF/aug-cc-pVTZ energy=   -918.999988849892

           DF-HF
   -918.99998885
 **********************************************************************************************************************************
 Molpro calculation terminated
