Job running on cff057 PBS JobID 3822078.pbs01 at Thu Jul 13 13:53:27 IDT 2023

                                 *****************
                                 * O   R   C   A *
                                 *****************

                                            #,                                       
                                            ###                                      
                                            ####                                     
                                            #####                                    
                                            ######                                   
                                           ########,                                 
                                     ,,################,,,,,                         
                               ,,#################################,,                 
                          ,,##########################################,,             
                       ,#########################################, ''#####,          
                    ,#############################################,,   '####,        
                  ,##################################################,,,,####,       
                ,###########''''           ''''###############################       
              ,#####''   ,,,,##########,,,,          '''####'''          '####       
            ,##' ,,,,###########################,,,                        '##       
           ' ,,###''''                  '''############,,,                           
         ,,##''                                '''############,,,,        ,,,,,,###''
      ,#''                                            '''#######################'''  
     '                                                          ''''####''''         
             ,#######,   #######,   ,#######,      ##                                
            ,#'     '#,  ##    ##  ,#'     '#,    #''#        ######   ,####,        
            ##       ##  ##   ,#'  ##            #'  '#       #        #'  '#        
            ##       ##  #######   ##           ,######,      #####,   #    #        
            '#,     ,#'  ##    ##  '#,     ,#' ,#      #,         ##   #,  ,#        
             '#######'   ##     ##  '#######'  #'      '#     #####' # '####'        



                  #######################################################
                  #                        -***-                        #
                  #          Department of theory and spectroscopy      #
                  #    Directorship and core code : Frank Neese         #
                  #        Max Planck Institute fuer Kohlenforschung    #
                  #                Kaiser Wilhelm Platz 1               #
                  #                 D-45470 Muelheim/Ruhr               #
                  #                      Germany                        #
                  #                                                     #
                  #                  All rights reserved                #
                  #                        -***-                        #
                  #######################################################


                         Program Version 5.0.4 -  RELEASE  -


 With contributions from (in alphabetic order):
   Daniel Aravena         : Magnetic Suceptibility
   Michael Atanasov       : Ab Initio Ligand Field Theory (pilot matlab implementation)
   Alexander A. Auer      : GIAO ZORA, VPT2 properties, NMR spectrum
   Ute Becker             : Parallelization
   Giovanni Bistoni       : ED, misc. LED, open-shell LED, HFLD
   Martin Brehm           : Molecular dynamics
   Dmytro Bykov           : SCF Hessian
   Vijay G. Chilkuri      : MRCI spin determinant printing, contributions to CSF-ICE
   Dipayan Datta          : RHF DLPNO-CCSD density
   Achintya Kumar Dutta   : EOM-CC, STEOM-CC
   Dmitry Ganyushin       : Spin-Orbit,Spin-Spin,Magnetic field MRCI
   Miquel Garcia          : C-PCM and meta-GGA Hessian, CC/C-PCM, Gaussian charge scheme
   Yang Guo               : DLPNO-NEVPT2, F12-NEVPT2, CIM, IAO-localization
   Andreas Hansen         : Spin unrestricted coupled pair/coupled cluster methods
   Benjamin Helmich-Paris : MC-RPA, TRAH-SCF, COSX integrals
   Lee Huntington         : MR-EOM, pCC
   Robert Izsak           : Overlap fitted RIJCOSX, COSX-SCS-MP3, EOM
   Marcus Kettner         : VPT2
   Christian Kollmar      : KDIIS, OOCD, Brueckner-CCSD(T), CCSD density, CASPT2, CASPT2-K
   Simone Kossmann        : Meta GGA functionals, TD-DFT gradient, OOMP2, MP2 Hessian
   Martin Krupicka        : Initial AUTO-CI
   Lucas Lang             : DCDCAS
   Marvin Lechner         : AUTO-CI (C++ implementation), FIC-MRCC
   Dagmar Lenk            : GEPOL surface, SMD
   Dimitrios Liakos       : Extrapolation schemes; Compound Job, initial MDCI parallelization
   Dimitrios Manganas     : Further ROCIS development; embedding schemes
   Dimitrios Pantazis     : SARC Basis sets
   Anastasios Papadopoulos: AUTO-CI, single reference methods and gradients
   Taras Petrenko         : DFT Hessian,TD-DFT gradient, ASA, ECA, R-Raman, ABS, FL, XAS/XES, NRVS
   Peter Pinski           : DLPNO-MP2, DLPNO-MP2 Gradient
   Christoph Reimann      : Effective Core Potentials
   Marius Retegan         : Local ZFS, SOC
   Christoph Riplinger    : Optimizer, TS searches, QM/MM, DLPNO-CCSD(T), (RO)-DLPNO pert. Triples
   Tobias Risthaus        : Range-separated hybrids, TD-DFT gradient, RPA, STAB
   Michael Roemelt        : Original ROCIS implementation
   Masaaki Saitow         : Open-shell DLPNO-CCSD energy and density
   Barbara Sandhoefer     : DKH picture change effects
   Avijit Sen             : IP-ROCIS
   Kantharuban Sivalingam : CASSCF convergence, NEVPT2, FIC-MRCI
   Bernardo de Souza      : ESD, SOC TD-DFT
   Georgi Stoychev        : AutoAux, RI-MP2 NMR, DLPNO-MP2 response
   Willem Van den Heuvel  : Paramagnetic NMR
   Boris Wezisla          : Elementary symmetry handling
   Frank Wennmohs         : Technical directorship


 We gratefully acknowledge several colleagues who have allowed us to
 interface, adapt or use parts of their codes:
   Stefan Grimme, W. Hujo, H. Kruse, P. Pracht,  : VdW corrections, initial TS optimization,
                  C. Bannwarth, S. Ehlert          DFT functionals, gCP, sTDA/sTD-DF
   Ed Valeev, F. Pavosevic, A. Kumar             : LibInt (2-el integral package), F12 methods
   Garnet Chan, S. Sharma, J. Yang, R. Olivares  : DMRG
   Ulf Ekstrom                                   : XCFun DFT Library
   Mihaly Kallay                                 : mrcc  (arbitrary order and MRCC methods)
   Jiri Pittner, Ondrej Demel                    : Mk-CCSD
   Frank Weinhold                                : gennbo (NPA and NBO analysis)
   Christopher J. Cramer and Donald G. Truhlar   : smd solvation model
   Lars Goerigk                                  : TD-DFT with DH, B97 family of functionals
   V. Asgeirsson, H. Jonsson                     : NEB implementation
   FAccTs GmbH                                   : IRC, NEB, NEB-TS, DLPNO-Multilevel, CI-OPT
                                                   MM, QMMM, 2- and 3-layer-ONIOM, Crystal-QMMM,
                                                   LR-CPCM, SF, NACMEs, symmetry and pop. for TD-DFT,
                                                   nearIR, NL-DFT gradient (VV10), updates on ESD,
                                                   ML-optimized integration grids
   S Lehtola, MJT Oliveira, MAL Marques          : LibXC Library
   Liviu Ungur et al                             : ANISO software


 Your calculation uses the libint2 library for the computation of 2-el integrals
 For citations please refer to: http://libint.valeyev.net

 Your ORCA version has been built with support for libXC version: 5.1.0
 For citations please refer to: https://tddft.org/programs/libxc/

 This ORCA versions uses:
   CBLAS   interface :  Fast vector & matrix operations
   LAPACKE interface :  Fast linear algebra routines
   SCALAPACK package :  Parallel linear algebra routines
   Shared memory     :  Shared parallel matrices
   BLAS/LAPACK       :  OpenBLAS 0.3.15  USE64BITINT DYNAMIC_ARCH NO_AFFINITY Prescott SINGLE_THREADED
        Core in use  :  Prescott
   Copyright (c) 2011-2014, The OpenBLAS Project


Reading of a custom orbital basis requested
Basis file: /work/emmanous/4F12orbitalbasisforTMs_sequel/Br2/ORCA/VQZ-PP-F12/obs.orca
READING GTO-BASIS: BROMINE
Basis read successfully!

Reading of a custom AuxC basis requested
Basis file: /work/emmanous/4F12orbitalbasisforTMs_sequel/Br2/ORCA/VQZ-PP-F12/mp2fitbasis.orca
READING GTO-BASIS: BROMINE
Basis read successfully!

Reading of a custom AuxJK basis requested
Basis file: /work/emmanous/4F12orbitalbasisforTMs_sequel/Br2/ORCA/VQZ-PP-F12/jkbasis.orca
READING GTO-BASIS: BROMINE
Basis read successfully!

Reading of a custom CABS basis requested
Basis file: /work/emmanous/4F12orbitalbasisforTMs_sequel/Br2/ORCA/VQZ-PP-F12/jkbasis.orca
READING GTO-BASIS: BROMINE
Basis read successfully!

Setting NCore(Br) from 18 to 10
================================================================================

cite the ECPs for Br [SK MCDHF RSC] as follows:
O: B. Metz and H. Stoll, private communication (KAP)
Tl: B. Metz, M. Schweizer, H. Stoll, M. Dolg, W. Liu, Theor. Chem. Acc. 104, 22 (2000)
Ga-As, In-Sb, Pb-Bi: B. Metz, H. Stoll, M. Dolg, J. Chem. Phys. 113, 2563 (2000)
Se-Kr, Te-Xe, Po-Rn: K.A. Peterson, D. Figgen, E. Goll, H. Stoll, and M. Dolg, J. Chem. Phys., in press (2003)
Cu-Zn, Ag-Cd, Au-Hg: D. Figgen, G. Rauhut, M. Dolg, and H. Stoll, Chem. Phys. 311, 227 (2005)
Y-Pd: K.A. Peterson, D. Figgen, M. Dolg, H. Stoll, J. Chem. Phys. 126, 124101 (2007)
I: K. A. Peterson, B. C. Shepler, D. Figgen, H. Stoll, J. Phys. Chem. A 110, 13877 (2006)
Hf-Pt: D. Figgen, K.A. Peterson, M. Dolg, H. Stoll, J. Chem. Phys. 130, 164108 (2009)
Ca, Sr, Ba, Ra: I.S. Lim, H. Stoll, P. Schwerdtfeger, J. Chem. Phys. 124, 034107 (2006)
U: M. Dolg, X. Cao, J. Phys. Chem. A 113, 12573 (2009)

ECP parameters for Br [SK MCDHF RSC] have been obtained from:
cc-pVDZ-PP  EMSL  Basis Set Exchange Library   4/7/16 5:27 AM
Ca, Sr, Ba, Ra: http://www.tc.uni-koeln.de/PP/index.en.html 3/16/17 1:54 PM


----- Orbital basis set information -----
Basis read from file: /work/emmanous/4F12orbitalbasisforTMs_sequel/Br2/ORCA/VQZ-PP-F12/obs.orca

----- AuxC basis set information -----
Basis read from file: /work/emmanous/4F12orbitalbasisforTMs_sequel/Br2/ORCA/VQZ-PP-F12/mp2fitbasis.orca

----- AuxJK basis set information -----
Basis read from file: /work/emmanous/4F12orbitalbasisforTMs_sequel/Br2/ORCA/VQZ-PP-F12/jkbasis.orca

----- CABS information -----
Basis read from file: /work/emmanous/4F12orbitalbasisforTMs_sequel/Br2/ORCA/VQZ-PP-F12/jkbasis.orca

================================================================================
                                        WARNINGS
                       Please study these warnings very carefully!
================================================================================


WARNING: No MP2 level density has been requested!
         To caclulate MP2 level properties use
         %mp2 Density relaxed end
         or
         %mp2 Density unrelaxed end

WARNING: Post HF methods need fully converged wavefunctions
  ===> : Setting SCFConvForced true
         You can overwrite this default with %scf ConvForced false 


INFO   : the flag for use of the SHARK integral package has been found!

================================================================================
                                       INPUT FILE
================================================================================
NAME = br2.inp
|  1> ! RI-MP2-F12 nousesym verytightscf NoPOP PRINTBASIS
|  2> 
|  3> %basis
|  4> GTOName = "/work/emmanous/4F12orbitalbasisforTMs_sequel/Br2/ORCA/VQZ-PP-F12/obs.orca"
|  5> GTOAuxJKName = "/work/emmanous/4F12orbitalbasisforTMs_sequel/Br2/ORCA/VQZ-PP-F12/jkbasis.orca"
|  6> GTOAuxCName = "/work/emmanous/4F12orbitalbasisforTMs_sequel/Br2/ORCA/VQZ-PP-F12/mp2fitbasis.orca"
|  7> GTOCABSName = "/work/emmanous/4F12orbitalbasisforTMs_sequel/Br2/ORCA/VQZ-PP-F12/jkbasis.orca"
|  8> NewECP Br "SK-MCDHF-RSC" end
|  9> DecontractCABS  false
| 10> end
| 11> 
| 12> %pal nprocs 16
| 13> end
| 14> %maxcore 12000
| 15> 
| 16> %method
| 17> NewNCore Br 10 end
| 18> F12Gamma 1.0
| 19> end
| 20> 
| 21> *xyz 0 1
| 22> Br 	0.0000 	0.0000 	1.1405
| 23> Br 	0.0000 	0.0000 	-1.1405
| 24> *
| 25> 
| 26>                          ****END OF INPUT****
================================================================================

                       ****************************
                       * Single Point Calculation *
                       ****************************

---------------------------------
CARTESIAN COORDINATES (ANGSTROEM)
---------------------------------
  Br     0.000000    0.000000    1.140500
  Br     0.000000    0.000000   -1.140500

----------------------------
CARTESIAN COORDINATES (A.U.)
----------------------------
  NO LB      ZA    FRAG     MASS         X           Y           Z
   0 Br   25.0000*   0    79.900    0.000000    0.000000    2.155233
   1 Br   25.0000*   0    79.900    0.000000    0.000000   -2.155233
* core charge reduced due to ECP

--------------------------------
INTERNAL COORDINATES (ANGSTROEM)
--------------------------------
 Br     0   0   0     0.000000000000     0.00000000     0.00000000
 Br     1   0   0     2.281000000000     0.00000000     0.00000000

---------------------------
INTERNAL COORDINATES (A.U.)
---------------------------
 Br     0   0   0     0.000000000000     0.00000000     0.00000000
 Br     1   0   0     4.310465311474     0.00000000     0.00000000

---------------------
BASIS SET INFORMATION
---------------------
There are 1 groups of distinct atoms

 Group   1 Type Br  : 38s31p17d4f2g contracted to 8s5p6d4f2g pattern {1616111111/1313311/1211111/1111/11}

Atom   0Br   basis set group =>   1
Atom   1Br   basis set group =>   1

-------------------------
BASIS SET IN INPUT FORMAT
-------------------------

 # Basis set for element : Br
 NewGTO Br
 S 16 
   1  200938.0000000000      0.0000090000
   2   29988.8000000000      0.0000670000
   3    6825.5600000000      0.0003470002
   4    1940.5200000000      0.0013380007
   5     635.8020000000      0.0039120019
   6     224.4040000000      0.0075260037
   7      37.6333000000      0.1644060804
   8      23.5218000000     -0.3355151640
   9      11.8595000000     -0.2547661245
  10       7.4061100000      0.1758060859
  11       3.5814200000      0.6294173077
  12       1.8335600000      0.4504232202
  13       0.8030160000      0.0570870279
  14       0.4622600000     -0.0069710034
  15       0.2196120000      0.0022810011
  16       0.0997550000     -0.0002020001
 S 16 
   1  200938.0000000000     -0.0000030000
   2   29988.8000000000     -0.0000280000
   3    6825.5600000000     -0.0001380000
   4    1940.5200000000     -0.0005560000
   5     635.8020000000     -0.0015320001
   6     224.4040000000     -0.0032430003
   7      37.6333000000     -0.0617910049
   8      23.5218000000      0.1335230105
   9      11.8595000000      0.0836960066
  10       7.4061100000     -0.0573700045
  11       3.5814200000     -0.3378010266
  12       1.8335600000     -0.3785490298
  13       0.8030160000      0.0378300030
  14       0.4622600000      0.5364770423
  15       0.2196120000      0.5413650426
  16       0.0997550000      0.1316200104
 S 1 
   1       1.8335600000      1.0000000000
 S 1 
   1       0.8030160000      1.0000000000
 S 1 
   1       0.4622600000      1.0000000000
 S 1 
   1       0.2196120000      1.0000000000
 S 1 
   1       0.0997550000      1.0000000000
 S 1 
   1       0.0391000000      1.0000000000
 P 13 
   1    1328.6400000000      0.0000980000
   2     312.5360000000      0.0006740000
   3      74.1900000000      0.0089479999
   4      37.6058000000     -0.0249849996
   5      23.5026000000     -0.0763879988
   6       8.4691300000      0.2141129967
   7       4.7068700000      0.4033529937
   8       2.5568200000      0.3631399943
   9       1.3564700000      0.1381569978
  10       0.6468200000      0.0142539998
  11       0.3078880000      0.0006570000
  12       0.1425070000      0.0006010000
  13       0.0637020000      0.0000550000
 P 13 
   1    1328.6400000000     -0.0000290000
   2     312.5360000000     -0.0001930000
   3      74.1900000000     -0.0026800003
   4      37.6058000000      0.0083940010
   5      23.5026000000      0.0202870025
   6       8.4691300000     -0.0716790087
   7       4.7068700000     -0.1279330156
   8       2.5568200000     -0.1481780180
   9       1.3564700000     -0.0013850002
  10       0.6468200000      0.2854460347
  11       0.3078880000      0.4449260542
  12       0.1425070000      0.3376320411
  13       0.0637020000      0.0880660107
 P 3 
   1       1.3564700000      0.3997171156
   2       0.3078880000      0.3997171156
   3       0.1425070000      0.3997171156
 P 1 
   1       0.0637020000      1.0000000000
 P 1 
   1       0.0269000000      1.0000000000
 D 12 
   1    1441.5800000000      0.0000600000
   2     437.6910000000      0.0006249999
   3     172.1530000000      0.0041529990
   4      78.2124000000      0.0210119951
   5      39.6082000000      0.0628139855
   6      20.3440000000      0.1358289686
   7      10.7392000000      0.2291319471
   8       5.7077300000      0.2936929321
   9       3.0219400000      0.2863459338
  10       1.5766900000      0.1900189561
  11       0.7844110000      0.0686939841
  12       0.3352350000      0.0084029981
 D 1 
   1       2.6608000000      1.0000000000
 D 1 
   1       0.7434000000      1.0000000000
 D 1 
   1       0.4095000000      1.0000000000
 D 1 
   1       0.2256000000      1.0000000000
 D 1 
   1       0.1242000000      1.0000000000
 F 1 
   1       3.5116000000      1.0000000000
 F 1 
   1       0.8425000000      1.0000000000
 F 1 
   1       0.4053000000      1.0000000000
 F 1 
   1       0.1950000000      1.0000000000
 G 1 
   1       0.7947000000      1.0000000000
 G 1 
   1       0.3155000000      1.0000000000
  end;

---------------------------------
AUXILIARY/C BASIS SET INFORMATION
---------------------------------
There are 1 groups of distinct atoms

 Group   1 Type Br  : 13s13p11d9f8g6h3i contracted to 13s13p11d9f8g6h3i pattern {1111111111111/1111111111111/11111111111/111111111/11111111/111111/111}

Atom   0Br   basis set group =>   1
Atom   1Br   basis set group =>   1

-------------------------------------
AUXILIARY/C BASIS SET IN INPUT FORMAT
-------------------------------------

 # Auxiliary/C basis set for element : Br
 NewAuxCGTO Br
 S 1 
   1      59.2270000000      1.0000000000
 S 1 
   1      35.1065000000      1.0000000000
 S 1 
   1      18.5872000000      1.0000000000
 S 1 
   1      12.3600000000      1.0000000000
 S 1 
   1       6.2972500000      1.0000000000
 S 1 
   1       3.5137900000      1.0000000000
 S 1 
   1       2.0948000000      1.0000000000
 S 1 
   1       1.2507300000      1.0000000000
 S 1 
   1       0.7228100000      1.0000000000
 S 1 
   1       0.4265760000      1.0000000000
 S 1 
   1       0.2350400000      1.0000000000
 S 1 
   1       0.1322620000      1.0000000000
 S 1 
   1       0.0533740000      1.0000000000
 P 1 
   1      70.1180000000      1.0000000000
 P 1 
   1      34.4925000000      1.0000000000
 P 1 
   1      17.4912000000      1.0000000000
 P 1 
   1       9.3257600000      1.0000000000
 P 1 
   1       5.5766900000      1.0000000000
 P 1 
   1       3.3877000000      1.0000000000
 P 1 
   1       1.9779000000      1.0000000000
 P 1 
   1       1.1613200000      1.0000000000
 P 1 
   1       0.7480260000      1.0000000000
 P 1 
   1       0.4573400000      1.0000000000
 P 1 
   1       0.2490590000      1.0000000000
 P 1 
   1       0.1481370000      1.0000000000
 P 1 
   1       0.0771960000      1.0000000000
 D 1 
   1      36.7596000000      1.0000000000
 D 1 
   1      18.8608000000      1.0000000000
 D 1 
   1       9.0111400000      1.0000000000
 D 1 
   1       4.9408700000      1.0000000000
 D 1 
   1       2.6764000000      1.0000000000
 D 1 
   1       1.5227600000      1.0000000000
 D 1 
   1       0.9077340000      1.0000000000
 D 1 
   1       0.5666450000      1.0000000000
 D 1 
   1       0.3092920000      1.0000000000
 D 1 
   1       0.1475450000      1.0000000000
 D 1 
   1       0.0768550000      1.0000000000
 F 1 
   1      37.4447000000      1.0000000000
 F 1 
   1      17.3342000000      1.0000000000
 F 1 
   1       9.0841800000      1.0000000000
 F 1 
   1       4.8623500000      1.0000000000
 F 1 
   1       3.2085600000      1.0000000000
 F 1 
   1       1.4285200000      1.0000000000
 F 1 
   1       0.8685780000      1.0000000000
 F 1 
   1       0.5325480000      1.0000000000
 F 1 
   1       0.2899640000      1.0000000000
 G 1 
   1      66.0132000000      1.0000000000
 G 1 
   1      26.2229000000      1.0000000000
 G 1 
   1      12.1654000000      1.0000000000
 G 1 
   1       5.5163400000      1.0000000000
 G 1 
   1       3.0752500000      1.0000000000
 G 1 
   1       1.7126500000      1.0000000000
 G 1 
   1       0.8991010000      1.0000000000
 G 1 
   1       0.5415580000      1.0000000000
 H 1 
   1      31.0363000000      1.0000000000
 H 1 
   1      16.9752000000      1.0000000000
 H 1 
   1       6.5831800000      1.0000000000
 H 1 
   1       2.8694100000      1.0000000000
 H 1 
   1       1.9654600000      1.0000000000
 H 1 
   1       0.6441600000      1.0000000000
 I 1 
   1       6.2611500000      1.0000000000
 I 1 
   1       3.0192600000      1.0000000000
 I 1 
   1       1.2075200000      1.0000000000
  end;

----------------------------------
AUXILIARY/JK BASIS SET INFORMATION
----------------------------------
There are 1 groups of distinct atoms

 Group   1 Type Br  : 20s14p13d10f7g3h contracted to 17s13p12d9f6g3h pattern {41111111111111111/2111111111111/211111111111/211111111/211111/111}

Atom   0Br   basis set group =>   1
Atom   1Br   basis set group =>   1

--------------------------------------
AUXILIARY/JK BASIS SET IN INPUT FORMAT
--------------------------------------

 # Auxiliary/JK basis set for element : Br
 NewAuxJKGTO Br
 S 4 
   1   18095.3066510000      0.1428291622
   2    8408.8418050000      0.0570221773
   3    4014.7685140000      0.4059499717
   4    1967.7342550000      0.4748897584
 S 1 
   1     989.1062180000      1.0000000000
 S 1 
   1     509.3769620000      1.0000000000
 S 1 
   1     268.4506970000      1.0000000000
 S 1 
   1     144.6061940000      1.0000000000
 S 1 
   1      79.5122280000      1.0000000000
 S 1 
   1      44.5648960000      1.0000000000
 S 1 
   1      25.4221210000      1.0000000000
 S 1 
   1      14.7367160000      1.0000000000
 S 1 
   1       8.6663050000      1.0000000000
 S 1 
   1       5.1612220000      1.0000000000
 S 1 
   1       3.1071870000      1.0000000000
 S 1 
   1       1.8873940000      1.0000000000
 S 1 
   1       1.1545160000      1.0000000000
 S 1 
   1       0.7097800000      1.0000000000
 S 1 
   1       0.4376880000      1.0000000000
 S 1 
   1       0.2701750000      1.0000000000
 P 2 
   1    3076.1003660000      0.3232393620
   2    1316.0389160000      0.7215950983
 P 1 
   1     577.1122560000      1.0000000000
 P 1 
   1     258.9879090000      1.0000000000
 P 1 
   1     118.7340330000      1.0000000000
 P 1 
   1      55.5063130000      1.0000000000
 P 1 
   1      26.4073050000      1.0000000000
 P 1 
   1      12.7589450000      1.0000000000
 P 1 
   1       6.2468980000      1.0000000000
 P 1 
   1       3.0923130000      1.0000000000
 P 1 
   1       1.5440040000      1.0000000000
 P 1 
   1       0.7757270000      1.0000000000
 P 1 
   1       0.3911970000      1.0000000000
 P 1 
   1       0.1975260000      1.0000000000
 D 2 
   1     826.5709030000      0.2273240779
   2     298.3545010000      0.8378452267
 D 1 
   1     133.2466350000      1.0000000000
 D 1 
   1      63.6708620000      1.0000000000
 D 1 
   1      29.1834150000      1.0000000000
 D 1 
   1      13.0611020000      1.0000000000
 D 1 
   1       6.4290000000      1.0000000000
 D 1 
   1       3.1059670000      1.0000000000
 D 1 
   1       1.5195000000      1.0000000000
 D 1 
   1       0.7507430000      1.0000000000
 D 1 
   1       0.3735680000      1.0000000000
 D 1 
   1       0.1866860000      1.0000000000
 D 1 
   1       0.0934280000      1.0000000000
 F 2 
   1     313.2525700000      0.2014927513
   2     120.0807110000      0.8647102023
 F 1 
   1      55.0966960000      1.0000000000
 F 1 
   1      27.0413820000      1.0000000000
 F 1 
   1      13.0176460000      1.0000000000
 F 1 
   1       6.2809990000      1.0000000000
 F 1 
   1       2.8802460000      1.0000000000
 F 1 
   1       1.3853710000      1.0000000000
 F 1 
   1       0.7372920000      1.0000000000
 F 1 
   1       0.3649230000      1.0000000000
 G 2 
   1     112.1374120000      0.1795662176
   2      42.9595500000      0.8910060084
 G 1 
   1      18.8588000000      1.0000000000
 G 1 
   1       8.5794370000      1.0000000000
 G 1 
   1       3.9274930000      1.0000000000
 G 1 
   1       1.6240220000      1.0000000000
 G 1 
   1       0.7615510000      1.0000000000
 H 1 
   1       9.4347030000      1.0000000000
 H 1 
   1       3.1449010000      1.0000000000
 H 1 
   1       1.0483000000      1.0000000000
  end;

--------------
CABS BASIS SET
--------------
There are 1 groups of distinct atoms

 Group   1 Type Br  : 20s14p13d10f7g3h contracted to 17s13p12d9f6g3h pattern {41111111111111111/2111111111111/211111111111/211111111/211111/111}

Atom   0Br   basis set group =>   1
Atom   1Br   basis set group =>   1

------------------------------
CABS BASIS SET IN INPUT FORMAT
------------------------------

 # Basis set for element : Br
 NewGTO Br
 S 4 
   1   18095.3066510000      0.1428291622
   2    8408.8418050000      0.0570221773
   3    4014.7685140000      0.4059499717
   4    1967.7342550000      0.4748897584
 S 1 
   1     989.1062180000      1.0000000000
 S 1 
   1     509.3769620000      1.0000000000
 S 1 
   1     268.4506970000      1.0000000000
 S 1 
   1     144.6061940000      1.0000000000
 S 1 
   1      79.5122280000      1.0000000000
 S 1 
   1      44.5648960000      1.0000000000
 S 1 
   1      25.4221210000      1.0000000000
 S 1 
   1      14.7367160000      1.0000000000
 S 1 
   1       8.6663050000      1.0000000000
 S 1 
   1       5.1612220000      1.0000000000
 S 1 
   1       3.1071870000      1.0000000000
 S 1 
   1       1.8873940000      1.0000000000
 S 1 
   1       1.1545160000      1.0000000000
 S 1 
   1       0.7097800000      1.0000000000
 S 1 
   1       0.4376880000      1.0000000000
 S 1 
   1       0.2701750000      1.0000000000
 P 2 
   1    3076.1003660000      0.3232393620
   2    1316.0389160000      0.7215950983
 P 1 
   1     577.1122560000      1.0000000000
 P 1 
   1     258.9879090000      1.0000000000
 P 1 
   1     118.7340330000      1.0000000000
 P 1 
   1      55.5063130000      1.0000000000
 P 1 
   1      26.4073050000      1.0000000000
 P 1 
   1      12.7589450000      1.0000000000
 P 1 
   1       6.2468980000      1.0000000000
 P 1 
   1       3.0923130000      1.0000000000
 P 1 
   1       1.5440040000      1.0000000000
 P 1 
   1       0.7757270000      1.0000000000
 P 1 
   1       0.3911970000      1.0000000000
 P 1 
   1       0.1975260000      1.0000000000
 D 2 
   1     826.5709030000      0.2273240779
   2     298.3545010000      0.8378452267
 D 1 
   1     133.2466350000      1.0000000000
 D 1 
   1      63.6708620000      1.0000000000
 D 1 
   1      29.1834150000      1.0000000000
 D 1 
   1      13.0611020000      1.0000000000
 D 1 
   1       6.4290000000      1.0000000000
 D 1 
   1       3.1059670000      1.0000000000
 D 1 
   1       1.5195000000      1.0000000000
 D 1 
   1       0.7507430000      1.0000000000
 D 1 
   1       0.3735680000      1.0000000000
 D 1 
   1       0.1866860000      1.0000000000
 D 1 
   1       0.0934280000      1.0000000000
 F 2 
   1     313.2525700000      0.2014927513
   2     120.0807110000      0.8647102023
 F 1 
   1      55.0966960000      1.0000000000
 F 1 
   1      27.0413820000      1.0000000000
 F 1 
   1      13.0176460000      1.0000000000
 F 1 
   1       6.2809990000      1.0000000000
 F 1 
   1       2.8802460000      1.0000000000
 F 1 
   1       1.3853710000      1.0000000000
 F 1 
   1       0.7372920000      1.0000000000
 F 1 
   1       0.3649230000      1.0000000000
 G 2 
   1     112.1374120000      0.1795662176
   2      42.9595500000      0.8910060084
 G 1 
   1      18.8588000000      1.0000000000
 G 1 
   1       8.5794370000      1.0000000000
 G 1 
   1       3.9274930000      1.0000000000
 G 1 
   1       1.6240220000      1.0000000000
 G 1 
   1       0.7615510000      1.0000000000
 H 1 
   1       9.4347030000      1.0000000000
 H 1 
   1       3.1449010000      1.0000000000
 H 1 
   1       1.0483000000      1.0000000000
  end;

-------------------------
ECP PARAMETER INFORMATION
-------------------------

 Group 1, Type Br ECP SK MCDHF RSC (replacing 10 core electrons, lmax=4)

Atom   0Br   ECP group =>   1
Atom   1Br   ECP group =>   1


-------------------------
ECP BASIS IN INPUT FORMAT
-------------------------

 #Stuttgart-Koeln MCDHF RSC ECP
 NewECP Br
   N_core 10
   lmax g
   s 3
     1      70.0242570000     49.9628340000  2
     2      31.1784120000    370.0142050000  2
     3       7.1565930000     10.2414390000  2
   p 4
     1      46.7734710000     99.1122440000  2
     2      46.1841200000    198.2530460000  2
     3      21.7138580000     28.2617400000  2
     4      20.9417920000     56.6233660000  2
   d 6
     1      50.6988390000    -18.6058530000  2
     2      50.6447640000    -27.9232800000  2
     3      15.4475090000     -0.3796930000  2
     4      15.5002590000     -0.7805830000  2
     5       2.8003910000      0.0359680000  2
     6       1.0774800000      0.0943970000  2
   f 2
     1      14.4656060000     -1.0912690000  2
     2      21.2340650000     -2.8876910000  2
   g 1
     1       1.0000000000      0.0000000000  2
 End




           ************************************************************
           *        Program running with 16 parallel MPI-processes    *
           *              working on a common directory               *
           ************************************************************
------------------------------------------------------------------------------
                           ORCA GTO INTEGRAL CALCULATION
------------------------------------------------------------------------------
------------------------------------------------------------------------------
                   ___                                                        
                  /   \      - P O W E R E D   B Y -                         
                 /     \                                                     
                 |  |  |   _    _      __       _____    __    __             
                 |  |  |  | |  | |    /  \     |  _  \  |  |  /  |          
                  \  \/   | |  | |   /    \    | | | |  |  | /  /          
                 / \  \   | |__| |  /  /\  \   | |_| |  |  |/  /          
                |  |  |   |  __  | /  /__\  \  |    /   |      \           
                |  |  |   | |  | | |   __   |  |    \   |  |\   \          
                \     /   | |  | | |  |  |  |  | |\  \  |  | \   \       
                 \___/    |_|  |_| |__|  |__|  |_| \__\ |__|  \__/        
                                                                              
                      - O R C A' S   B I G   F R I E N D -                    
                                      &                                       
                       - I N T E G R A L  F E E D E R -                       
                                                                              
 v1 FN, 2020, v2 2021                                                         
------------------------------------------------------------------------------


Reading SHARK input file br2.SHARKINP.tmp ... ok
----------------------
SHARK INTEGRAL PACKAGE
----------------------

Number of atoms                             ...      2
Number of basis functions                   ...    292
Number of shells                            ...    100
Maximum angular momentum                    ...      4
Integral batch strategy                     ... SHARK/LIBINT Hybrid
RI-J (if used) integral strategy            ... SPLIT-RIJ (Revised 2003 algorithm where possible)
Printlevel                                  ...      1
Contraction scheme used                     ... PARTIAL GENERAL contraction
Coulomb Range Separation                    ... NOT USED
Exchange Range Separation                   ... NOT USED
Finite Nucleus Model                        ... NOT USED
Auxiliary Coulomb fitting basis             ... NOT available
Auxiliary J/K fitting basis                 ... AVAILABLE
   # of basis functions in Aux-JK           ...    532
   # of shells in Aux-JK                    ...    120
   Maximum angular momentum in Aux-JK       ...      5
Auxiliary Correlation fitting basis         ... AVAILABLE
   # of basis functions in Aux-C            ...    694
   # of shells in Aux-C                     ...    126
   Maximum angular momentum in Aux-C        ...      6
Auxiliary 'external' fitting basis          ... NOT available
Integral threshold                          ...     1.000000e-12
Primitive cut-off                           ...     1.000000e-14
Primitive pair pre-selection threshold      ...     1.000000e-14

Calculating pre-screening integrals         ... done (  0.2 sec) Dimension = 100
Calculating pre-screening integrals (ORCA)  ... done (  0.7 sec) Dimension = 50
Organizing shell pair data                  ... done (  0.1 sec)
Shell pair information
Total number of shell pairs                 ...      5050
Shell pairs after pre-screening             ...      4594
Total number of primitive shell pairs       ...      8139
Primitive shell pairs kept                  ...      7247
          la=0 lb=0:    841 shell pairs
          la=1 lb=0:   1222 shell pairs
          la=1 lb=1:    469 shell pairs
          la=2 lb=0:    510 shell pairs
          la=2 lb=1:    374 shell pairs
          la=2 lb=2:     78 shell pairs
          la=3 lb=0:    332 shell pairs
          la=3 lb=1:    244 shell pairs
          la=3 lb=2:     96 shell pairs
          la=3 lb=3:     36 shell pairs
          la=4 lb=0:    174 shell pairs
          la=4 lb=1:    128 shell pairs
          la=4 lb=2:     48 shell pairs
          la=4 lb=3:     32 shell pairs
          la=4 lb=4:     10 shell pairs

Calculating one electron integrals          ... done (  0.0 sec)
Calculating ECP integrals                   ... done (  0.3 sec)
Calculating RI/JK V-Matrix + Cholesky decomp... done (  0.1 sec)
Calculating RI/C V-Matrix + Cholesky decomp.... done (  0.1 sec)
Calculating Nuclear repulsion               ... done (  0.0 sec) ENN=    144.995947035292 Eh

SHARK setup successfully completed in   2.0 seconds

Maximum memory used throughout the entire GTOINT-calculation: 114.8 MB


           ************************************************************
           *        Program running with 16 parallel MPI-processes    *
           *              working on a common directory               *
           ************************************************************
-------------------------------------------------------------------------------
                                 ORCA SCF
-------------------------------------------------------------------------------

------------
SCF SETTINGS
------------
Hamiltonian:
 Ab initio Hamiltonian  Method          .... Hartree-Fock(GTOs)


General Settings:
 Integral files         IntName         .... br2
 Hartree-Fock type      HFTyp           .... RHF
 Total Charge           Charge          ....    0
 Multiplicity           Mult            ....    1
 Number of Electrons    NEL             ....   50
 Basis Dimension        Dim             ....  198
 Nuclear Repulsion      ENuc            ....    144.9959470353 Eh

Convergence Acceleration:
 DIIS                   CNVDIIS         .... on
   Start iteration      DIISMaxIt       ....    12
   Startup error        DIISStart       ....  0.200000
   # of expansion vecs  DIISMaxEq       ....     5
   Bias factor          DIISBfac        ....   1.050
   Max. coefficient     DIISMaxC        ....  10.000
 Trust-Rad. Augm. Hess. CNVTRAH         .... auto
   Auto Start mean grad. ratio tolernc. ....  1.125000
   Auto Start start iteration           ....    20
   Auto Start num. interpolation iter.  ....    10
   Max. Number of Micro iterations      ....    16
   Max. Number of Macro iterations      .... Maxiter - #DIIS iter
   Number of Davidson start vectors     ....     2
   Converg. threshold I  (grad. norm)   ....   2.000e-06
   Converg. threshold II (energy diff.) ....   1.000e-09
   Grad. Scal. Fac. for Micro threshold ....   0.100
   Minimum threshold for Micro iter.    ....   0.010
   NR start threshold (gradient norm)   ....   0.001
   Initial trust radius                 ....   0.400
   Minimum AH scaling param. (alpha)    ....   1.000
   Maximum AH scaling param. (alpha)    .... 1000.000
   Orbital update algorithm             .... Taylor
   White noise on init. David. guess    .... on
   Maximum white noise                  ....   0.010
   Quad. conv. algorithm                .... NR
 SOSCF                  CNVSOSCF        .... on
   Start iteration      SOSCFMaxIt      ....   150
   Startup grad/error   SOSCFStart      ....  0.003300
 Level Shifting         CNVShift        .... on
   Level shift para.    LevelShift      ....    0.2500
   Turn off err/grad.   ShiftErr        ....    0.0010
 Zerner damping         CNVZerner       .... off
 Static damping         CNVDamp         .... on
   Fraction old density DampFac         ....    0.7000
   Max. Damping (<1)    DampMax         ....    0.9800
   Min. Damping (>=0)   DampMin         ....    0.0000
   Turn off err/grad.   DampErr         ....    0.1000
 Fernandez-Rico         CNVRico         .... off

SCF Procedure:
 Maximum # iterations   MaxIter         ....   125
 SCF integral mode      SCFMode         .... Direct
   Integral package                     .... SHARK and LIBINT hybrid scheme
 Reset frequency        DirectResetFreq ....    20
 Integral Threshold     Thresh          ....  1.000e-12 Eh
 Primitive CutOff       TCut            ....  1.000e-14 Eh

Convergence Tolerance:
 Convergence Check Mode ConvCheckMode   .... Total+1el-Energy
 Convergence forced     ConvForced      .... 1
 Energy Change          TolE            ....  1.000e-09 Eh
 1-El. energy change                    ....  1.000e-06 Eh
 Orbital Gradient       TolG            ....  2.000e-06
 Orbital Rotation angle TolX            ....  2.000e-06
 DIIS Error             TolErr          ....  1.000e-08


Diagonalization of the overlap matrix:
Smallest eigenvalue                        ... 1.331e-04
Time for diagonalization                   ...    0.006 sec
Threshold for overlap eigenvalues          ... 1.000e-08
Number of eigenvalues below threshold      ... 0
Time for construction of square roots      ...    0.036 sec
Total time needed                          ...    0.042 sec

Time for model grid setup =    0.082 sec

------------------------------
INITIAL GUESS: MODEL POTENTIAL
------------------------------
Loading Hartree-Fock densities                     ... done
  calling /gpfs01/work/coiron/apps/orca/orca br2_atom35.inp > br2_atom35.out in order to generate an atomic fitting density for atom 0 (Br with ECP) on-the-fly... 
    atom 0 (Br), assumed electronic state with S=2: 1s2 2s2 2p6 3s2 3p6 4s2 3d10 4p5           ... done
Calculating cut-offs                               ... done
Initializing the effective Hamiltonian             ... done
Setting up the integral package (SHARK)            ... done
Starting the Coulomb interaction                   ... done (   0.1 sec)
Reading the grid                                   ... done
Mapping shells                                     ... done
Starting the XC term evaluation                    ... done (   0.0 sec)
Transforming the Hamiltonian                       ... done (   0.0 sec)
Diagonalizing the Hamiltonian                      ... done (   0.0 sec)
Back transforming the eigenvectors                 ... done (   0.0 sec)
Now organizing SCF variables                       ... done
                      ------------------
                      INITIAL GUESS DONE (   4.9 sec)
                      ------------------
--------------
SCF ITERATIONS
--------------
ITER       Energy         Delta-E        Max-DP      RMS-DP      [F,P]     Damp
               ***  Starting incremental Fock matrix formation  ***
  0   -830.3642965124   0.000000000000 0.83249939  0.00734823  0.5001616 0.7000
  1   -830.5920120127  -0.227715500243 0.54429820  0.00486384  0.2974279 0.7000
                               ***Turning on DIIS***
  2   -830.7271220374  -0.135110024710 0.33823539  0.00308655  0.1765949 0.7000
  3   -832.3152189720  -1.588096934613 0.18702408  0.00184719  0.1077301 0.7000
  4   -832.2106631302   0.104555841786 0.43334532  0.00427620  0.0752329 0.0000
  5   -831.0565060190   1.154157111240 0.01671666  0.00017537  0.0049192 0.0000
                      *** Initiating the SOSCF procedure ***
                           *** Shutting down DIIS ***
                      *** Re-Reading the Fockian *** 
                      *** Removing any level shift *** 
ITER      Energy       Delta-E        Grad      Rot      Max-DP    RMS-DP
  6   -831.01493913   0.0415668860  0.001894  0.001894  0.001989  0.000047
               *** Restarting incremental Fock matrix formation ***
  7   -831.01090222   0.0040369113  0.000627  0.000777  0.000777  0.000018
  8   -831.01090548  -0.0000032574  0.000234  0.000460  0.000433  0.000009
  9   -831.01090594  -0.0000004587  0.000032  0.000021  0.000220  0.000002
 10   -831.01090595  -0.0000000099  0.000014  0.000010  0.000075  0.000001
 11   -831.01090595  -0.0000000021  0.000002  0.000002  0.000003  0.000000
                  ***Gradient check signals convergence***
              ***Rediagonalizing the Fockian in SOSCF/NRSCF***

               *****************************************************
               *                     SUCCESS                       *
               *           SCF CONVERGED AFTER  12 CYCLES          *
               *****************************************************


F12 calculation: making CABS-ECP integrals ... done

----------------
TOTAL SCF ENERGY
----------------

Total Energy       :         -831.01090595 Eh          -22612.95637 eV

Components:
Nuclear Repulsion  :          144.99594704 Eh            3945.54031 eV
Electronic Energy  :         -976.00685298 Eh          -26558.49668 eV
One Electron Energy:        -1748.76653966 Eh          -47586.35679 eV
Two Electron Energy:          772.75968667 Eh           21027.86011 eV

Virial components:
Potential Energy   :        -1422.46372519 Eh          -38707.20580 eV
Kinetic Energy     :          591.45281924 Eh           16094.24943 eV
Virial Ratio       :            2.40503330


---------------
SCF CONVERGENCE
---------------

  Last Energy change         ...   -2.9445e-11  Tolerance :   1.0000e-09
  Last MAX-Density change    ...    1.7941e-06  Tolerance :   1.0000e-08
  Last RMS-Density change    ...    2.8858e-08  Tolerance :   1.0000e-09
  Last Orbital Gradient      ...    2.8981e-07  Tolerance :   2.0000e-06
  Last Orbital Rotation      ...    5.3975e-07  Tolerance :   2.0000e-06

             **** THE GBW FILE WAS UPDATED (br2.gbw) ****
             **** DENSITY br2.scfp WAS UPDATED ****
             **** ENERGY FILE WAS UPDATED (br2.en.tmp) ****
             **** THE GBW FILE WAS UPDATED (br2.gbw) ****
             **** DENSITY br2.scfp WAS UPDATED ****
----------------
ORBITAL ENERGIES
----------------

  NO   OCC          E(Eh)            E(eV) 
   0   2.0000      -9.872717      -268.6503 
   1   2.0000      -9.872662      -268.6488 
   2   2.0000      -7.626780      -207.5352 
   3   2.0000      -7.626640      -207.5314 
   4   2.0000      -7.615599      -207.2310 
   5   2.0000      -7.615599      -207.2310 
   6   2.0000      -7.615584      -207.2306 
   7   2.0000      -7.615584      -207.2306 
   8   2.0000      -3.180425       -86.5438 
   9   2.0000      -3.177984       -86.4773 
  10   2.0000      -3.175057       -86.3977 
  11   2.0000      -3.175057       -86.3977 
  12   2.0000      -3.174262       -86.3761 
  13   2.0000      -3.174262       -86.3761 
  14   2.0000      -3.162387       -86.0529 
  15   2.0000      -3.162387       -86.0529 
  16   2.0000      -3.162336       -86.0515 
  17   2.0000      -3.162336       -86.0515 
  18   2.0000      -1.126568       -30.6555 
  19   2.0000      -0.978052       -26.6141 
  20   2.0000      -0.533299       -14.5118 
  21   2.0000      -0.504080       -13.7167 
  22   2.0000      -0.504080       -13.7167 
  23   2.0000      -0.404925       -11.0186 
  24   2.0000      -0.404925       -11.0186 
  25   0.0000      -0.004541        -0.1236 
  26   0.0000       0.059194         1.6107 
  27   0.0000       0.059708         1.6247 
  28   0.0000       0.065846         1.7918 
  29   0.0000       0.065846         1.7918 
  30   0.0000       0.081667         2.2223 
  31   0.0000       0.081667         2.2223 
  32   0.0000       0.087131         2.3710 
  33   0.0000       0.162764         4.4290 
  34   0.0000       0.242375         6.5954 
  35   0.0000       0.242375         6.5954 
  36   0.0000       0.249290         6.7835 
  37   0.0000       0.269965         7.3461 
  38   0.0000       0.269965         7.3461 
  39   0.0000       0.273599         7.4450 
  40   0.0000       0.297720         8.1014 
  41   0.0000       0.297720         8.1014 
  42   0.0000       0.336425         9.1546 
  43   0.0000       0.336425         9.1546 
  44   0.0000       0.339949         9.2505 
  45   0.0000       0.339949         9.2505 
  46   0.0000       0.365677         9.9506 
  47   0.0000       0.442064        12.0292 
  48   0.0000       0.461844        12.5674 
  49   0.0000       0.461844        12.5674 
  50   0.0000       0.549662        14.9571 
  51   0.0000       0.618156        16.8209 
  52   0.0000       0.618156        16.8209 
  53   0.0000       0.630595        17.1594 
  54   0.0000       0.648465        17.6456 
  55   0.0000       0.648465        17.6456 
  56   0.0000       0.668632        18.1944 
  57   0.0000       0.668632        18.1944 
  58   0.0000       0.702178        19.1072 
  59   0.0000       0.721433        19.6312 
  60   0.0000       0.721433        19.6312 
  61   0.0000       0.743887        20.2422 
  62   0.0000       0.743887        20.2422 
  63   0.0000       0.781239        21.2586 
  64   0.0000       0.781239        21.2586 
  65   0.0000       0.870400        23.6848 
  66   0.0000       0.870400        23.6848 
  67   0.0000       0.916894        24.9500 
  68   0.0000       0.916894        24.9500 
  69   0.0000       0.917858        24.9762 
  70   0.0000       0.917858        24.9762 
  71   0.0000       0.922465        25.1016 
  72   0.0000       0.941940        25.6315 
  73   0.0000       0.941940        25.6315 
  74   0.0000       0.983925        26.7740 
  75   0.0000       1.200398        32.6645 
  76   0.0000       1.344743        36.5923 
  77   0.0000       1.451023        39.4843 
  78   0.0000       1.451023        39.4843 
  79   0.0000       1.502820        40.8938 
  80   0.0000       1.502820        40.8938 
  81   0.0000       1.507907        41.0322 
  82   0.0000       1.507907        41.0322 
  83   0.0000       1.510645        41.1067 
  84   0.0000       1.510645        41.1067 
  85   0.0000       1.521675        41.4069 
  86   0.0000       1.521675        41.4069 
  87   0.0000       1.546092        42.0713 
  88   0.0000       1.550358        42.1874 
  89   0.0000       1.609602        43.7995 
  90   0.0000       1.609602        43.7995 
  91   0.0000       1.628147        44.3041 
  92   0.0000       1.658862        45.1399 
  93   0.0000       1.658862        45.1399 
  94   0.0000       1.701915        46.3115 
  95   0.0000       1.701915        46.3115 
  96   0.0000       1.744852        47.4798 
  97   0.0000       1.744852        47.4798 
  98   0.0000       1.763783        47.9950 
  99   0.0000       1.763783        47.9950 
 100   0.0000       1.772410        48.2297 
 101   0.0000       1.772410        48.2297 
 102   0.0000       1.795540        48.8591 
 103   0.0000       1.795540        48.8591 
 104   0.0000       1.815624        49.4056 
 105   0.0000       1.815624        49.4056 
 106   0.0000       1.826519        49.7021 
 107   0.0000       1.826519        49.7021 
 108   0.0000       1.830394        49.8076 
 109   0.0000       1.895414        51.5768 
 110   0.0000       1.895414        51.5768 
 111   0.0000       1.961633        53.3788 
 112   0.0000       2.013361        54.7863 
 113   0.0000       2.087269        56.7975 
 114   0.0000       2.110408        57.4271 
 115   0.0000       2.110408        57.4271 
 116   0.0000       2.129514        57.9470 
 117   0.0000       2.129514        57.9470 
 118   0.0000       2.179578        59.3093 
 119   0.0000       2.179578        59.3093 
 120   0.0000       3.483815        94.7994 
 121   0.0000       3.569743        97.1377 
 122   0.0000       3.569743        97.1377 
 123   0.0000       3.577959        97.3612 
 124   0.0000       3.577959        97.3612 
 125   0.0000       3.579781        97.4108 
 126   0.0000       3.597573        97.8949 
 127   0.0000       3.597573        97.8949 
 128   0.0000       3.623401        98.5978 
 129   0.0000       3.623401        98.5978 
 130   0.0000       3.647240        99.2464 
 131   0.0000       3.647240        99.2464 
 132   0.0000       3.660432        99.6054 
 133   0.0000       3.660432        99.6054 
 134   0.0000       3.707832       100.8953 
 135   0.0000       3.736936       101.6872 
 136   0.0000       3.736936       101.6872 
 137   0.0000       3.736971       101.6881 
 138   0.0000       3.736971       101.6881 
 139   0.0000       3.751414       102.0812 
 140   0.0000       3.751414       102.0812 
 141   0.0000       3.812452       103.7421 
 142   0.0000       3.814973       103.8107 
 143   0.0000       3.814973       103.8107 
 144   0.0000       3.902135       106.1825 
 145   0.0000       4.060912       110.5030 
 146   0.0000       4.098038       111.5133 
 147   0.0000       4.098038       111.5133 
 148   0.0000       4.110850       111.8619 
 149   0.0000       4.110850       111.8619 
 150   0.0000       4.115002       111.9749 
 151   0.0000       4.115002       111.9749 
 152   0.0000       4.148106       112.8757 
 153   0.0000       4.148106       112.8757 
 154   0.0000       4.160328       113.2083 
 155   0.0000       4.160328       113.2083 
 156   0.0000       4.171300       113.5068 
 157   0.0000       4.191990       114.0699 
 158   0.0000       4.191990       114.0699 
 159   0.0000       4.305292       117.1529 
 160   0.0000       4.305292       117.1529 
 161   0.0000       4.455377       121.2370 
 162   0.0000       4.455377       121.2370 
 163   0.0000       4.688364       127.5769 
 164   0.0000       5.960229       162.1861 
 165   0.0000       5.960229       162.1861 
 166   0.0000       5.984576       162.8486 
 167   0.0000       5.984576       162.8486 
 168   0.0000       6.533838       177.7948 
 169   0.0000       6.793709       184.8662 
 170   0.0000       9.700459       263.9629 
 171   0.0000       9.700459       263.9629 
 172   0.0000       9.710932       264.2479 
 173   0.0000       9.710932       264.2479 
 174   0.0000       9.725678       264.6492 
 175   0.0000       9.738975       265.0110 
 176   0.0000       9.738975       265.0110 
 177   0.0000       9.777140       266.0495 
 178   0.0000       9.777140       266.0495 
 179   0.0000       9.781243       266.1612 
 180   0.0000       9.781243       266.1612 
 181   0.0000       9.848762       267.9984 
 182   0.0000       9.848762       267.9984 
 183   0.0000       9.849390       268.0155 
 184   0.0000      10.964854       298.3688 
 185   0.0000      10.964854       298.3688 
 186   0.0000      10.972256       298.5703 
 187   0.0000      10.972256       298.5703 
 188   0.0000      11.007808       299.5377 
 189   0.0000      11.007808       299.5377 
 190   0.0000      11.082387       301.5671 
 191   0.0000      11.082387       301.5671 
 192   0.0000      11.115497       302.4680 
 193   0.0000      11.143479       303.2295 
 194   0.0000      11.813491       321.4614 
 195   0.0000      12.130226       330.0802 
 196   0.0000      83.897715      2282.9729 
 197   0.0000      84.132561      2289.3634 
-------
TIMINGS
-------

Total SCF time: 0 days 0 hours 1 min 10 sec 

Total time                  ....      70.509 sec
Sum of individual times     ....      67.213 sec  ( 95.3%)

Fock matrix formation       ....      61.604 sec  ( 87.4%)
Diagonalization             ....       0.134 sec  (  0.2%)
Density matrix formation    ....       0.003 sec  (  0.0%)
Population analysis         ....       0.000 sec  (  0.0%)
Initial guess               ....       4.862 sec  (  6.9%)
Orbital Transformation      ....       0.000 sec  (  0.0%)
Orbital Orthonormalization  ....       0.000 sec  (  0.0%)
DIIS solution               ....       0.388 sec  (  0.6%)
SOSCF solution              ....       0.140 sec  (  0.2%)

Maximum memory used throughout the entire SCF-calculation: 243.9 MB


           ************************************************************
           *        Program running with 16 parallel MPI-processes    *
           *              working on a common directory               *
           ************************************************************

------------------------------------------------------------------------------
                                ORCA  MP2 
------------------------------------------------------------------------------

Freezing NCore=0 chemical core electrons

------------------------------
Initializing F12 data
------------------------------

Mapping basis set                  ... done
Dimension of the orbital basis set  = 198
Dimension of the CABS basis set     = 532
Dimension of the AUX basis set      = 694
Threshold for CABS orthogonalization = 1.000e-08
Will use an exponential correlation factor -Exp(-gamma r12)/gamma (gamma= 1.000) fit to 6 Gaussians 
Correlation factor:   
  NGauss  :          6      
  Gaussian expansion: 
    a(0)=     0.220850853  d(0)=    -0.314424804 
    a(1)=     1.004019154  d(1)=    -0.303695753 
    a(2)=     3.621217265  d(2)=    -0.168069685 
    a(3)=    12.162483048  d(3)=    -0.098115813 
    a(4)=    45.855331575  d(4)=    -0.060246641 
    a(5)=   254.234600970  d(5)=    -0.037263542 
Calculating one-electron matrices                       ... done (      1.0 sec)
Calculating pre-screening matrices:                     ...
       .... 1/r12 done          (      0.9 sec)
       .... f12/r12 done        (      0.8 sec)
       .... f12 done            (      0.7 sec)
       .... f12^2 done          (      0.8 sec)
       .... [f12,[T1,f12]] done (      0.9 sec)
                                                        ... done (      4.1 sec)
Making CABS spaces                                      ... done (      0.1 sec)
Calculating 2-index 2-center F12 integrals              ... 
Two index explicit correlation integrals  op=0          ... done (      0.1 sec)  Metric   done (      0.0 sec)
Two index explicit correlation integrals  op=1          ... done (      0.1 sec)  Metric   done (      0.0 sec)
Two index explicit correlation integrals  op=2          ... done (      0.1 sec)  Metric   done (      0.0 sec)
Two index explicit correlation integrals  op=3          ... done (      0.1 sec)  Metric   done (      0.0 sec)
Two index explicit correlation integrals  op=4          ... done (      0.1 sec)  Metric   done (      0.0 sec)
                                                            done (      0.5 sec)

-----------------
RI-MP2-F12 ENERGY
-----------------

Dimension of the basis                    ...  198
   Number of shells                       ...   50
Dimension of the CABS basis               ...  532
   Number of shells                       ...  120
Dimension of the AUX basis                ...  694
   Number of shells                       ...  126
Memory devoted to MP2                     ... 12000 MB   
Orthogonalization threshold               ...    1.000e-08
Orbital window                            ...    0 -   24 ->   25 -  197
Doing density matrices                                  ... done (      0.0 sec)
Calculating Coulomb operators
       .... OBS/OBS done        (     11.2 sec)
       .... CABS/OBS done       (     23.6 sec)
       .... CABS/CABS done      (     15.4 sec)
Calculating Exchange operators
       .... OBS/OBS done        (     19.1 sec)
       .... CABS/OBS done       (     43.9 sec)
       .... CABS/CABS done      (     35.6 sec)
       .... exchange build done (     98.6 sec)
Completing Fock operators                               ... done (      0.1 sec)
Three index transformation (OBS,OBS/AUX) for  op=0      ... done (      0.5 sec)
Three index transformation (OBS,CABS/AUX) for op=0      ... done (      0.9 sec)
Three index transformation (OBS,OBS/AUX) for  op=1      ... done (      0.6 sec)
Three index transformation (OBS,CABS/AUX) for op=1      ... done (      1.0 sec)
Three index transformation (OBS,OBS/AUX) for  op=2      ... done (      0.5 sec)
Three index transformation (OBS,CABS/AUX) for op=2      ... done (      0.9 sec)
Three index transformation (OBS,OBS/AUX) for  op=3      ... done (      0.6 sec)
Three index transformation (OBS,CABS/AUX) for op=3      ... done (      1.0 sec)
Three index transformation (OBS,OBS/AUX) for  op=4      ... done (      0.6 sec)
Three index transformation (OBS,CABS/AUX) for op=4      ... done (      1.1 sec)
Three index transformation (OBS_F,OBS/AUX) for  op=2    ... done (      0.5 sec)
Three index transformation (OBS_F,CABS/AUX) for op=2    ... done (      0.9 sec)
Calculating F12 intermediates (incore)                  ... term4 ij =     -1.197489784
term4 ij =     -0.929198366
term4 ij =     -1.197408786
term4 ij =     -0.928191231
term4 ij =     -0.927826316
term4 ij =     -1.197449237
term4 ji =     -1.196749626
term4 ij =     -1.031090248
term4 ij =     -1.031834883
term4 ji =     -0.272378737
term4 ij =     -1.031834883
term4 ji =     -0.271602466
term4 ij =     -1.031866528
term4 ji =     -0.271602466
term4 ij =     -1.031124235
term4 ij =     -1.030866687
term4 ji =     -0.271569827
term4 ij =     -0.928007831
term4 ji =     -0.272946510
term4 ji =     -0.272875271
term4 ji =     -0.926954609
term4 ij =     -0.846036251
term4 ij =     -0.845866683
term4 ji =     -0.038843208
term4 ij =     -1.030900723
term4 ji =     -0.038855682
term4 ji =     -0.272384831
term4 ij =     -0.846036251
term4 ji =     -0.038843208
term4 ij =     -0.845897322
term4 ji =     -0.038843160
term4 ij =     -1.031866528
term4 ji =     -0.271569827
term4 ij =     -1.031872925
term4 ij =     -0.860397935
term4 ij =     -0.929261637
term4 ji =     -0.271572291
term4 ji =     -0.185752318
term4 ij =     -0.929198366
term4 ij =     -0.845866683
term4 ji =     -0.038855682
term4 ij =     -1.031904599
term4 ji =     -0.271616680
term4 ij =     -0.846066749
term4 ij =     -0.915616004
term4 ji =     -0.038861136
term4 ij =     -0.846753573
term4 ji =     -0.781934237
term4 ij =     -0.845897322
term4 ji =     -0.038764725
term4 ji =     -0.038843160
term4 ij =     -1.031904599
term4 ji =     -0.271616680
term4 ij =     -0.846066749
term4 ji =     -0.038861136
term4 ij =     -1.031872925
term4 ji =     -0.271572291
term4 ij =     -0.846814383
term4 ji =     -0.038765629
term4 ij =     -0.721897564
term4 ij =     -0.567608680
term4 ji =     -0.052832367
term4 ji =     -0.035353676
term4 ij =     -0.720962748
term4 ij =     -0.567590347
term4 ji =     -0.052652671
term4 ij =     -0.915616004
term4 ij =     -0.929261637
term4 ji =     -0.035351701
term4 ji =     -0.781934237
term4 ij =     -0.720945554
term4 ji =     -0.052746107
term4 ij =     -0.333619372
term4 ij =     -0.860397935
term4 ji =     -0.185752318
term4 ij =     -0.600692706
term4 ij =     -0.601420602
term4 ij =     -0.567608680
term4 ji =     -0.127138429
term4 ji =     -0.127126393
term4 ji =     -0.035353676
term4 ij =     -0.600779800
term4 ji =     -0.126793275
term4 ij =     -0.721880110
term4 ji =     -0.052746169
term4 ij =     -0.567590347
term4 ji =     -0.035351701
term4 ij =     -0.568321506
term4 ji =     -0.035352716
term4 ij =     -0.588714478
term4 ij =     -0.579162723
term4 ji =     -0.093531170
term4 ji =     -0.067220542
term4 ij =     -0.568339899
term4 ji =     -0.035350096
term4 ij =     -0.334383796
term4 ij =     -0.333999430
term4 ji =     -0.333710680
term4 ij =     -0.589710314
term4 ji =     -0.096579534
term4 ij =     -0.601508096
term4 ji =     -0.127466093
term4 ij =     -0.567159952
term4 ij =     -0.568339899
term4 ji =     -0.033930847
term4 ji =     -0.035350096
term4 ij =     -0.568321506
term4 ij =     -0.324147834
term4 ji =     -0.035352716
term4 ij =     -0.589796209
term4 ji =      0.017204218
term4 ij =     -0.721053350
term4 ji =     -0.096551270
term4 ji =     -0.052675869
term4 ij =     -0.557644901
term4 ji =     -0.007485659
term4 ij =     -0.721070597
term4 ji =     -0.052652522
term4 ij =     -0.721053350
term4 ji =     -0.052675869
term4 ij =     -0.567159952
term4 ij =     -0.721400108
term4 ij =     -0.324527629
term4 ij =     -0.721070597
term4 ji =     -0.033930847
term4 ji =     -0.052686436
term4 ji =      0.017232754
term4 ji =     -0.052652522
term4 ij =     -0.333488719
term4 ij =     -0.557644901
term4 ij =     -0.589796209
term4 ji =     -0.007485659
term4 ji =     -0.096551270
term4 ij =     -0.333488719
term4 ij =     -0.324527629
term4 ji =      0.017232754
term4 ij =     -0.317936190
term4 ji =      0.000518455
term4 ij =     -0.324147834
term4 ij =     -0.579162723
term4 ij =     -0.721417387
term4 ji =      0.017204218
term4 ji =     -0.067220542
term4 ji =     -0.052707285
term4 ij =     -0.589710314
term4 ji =     -0.096579534
term4 ij =     -0.588714478
term4 ji =     -0.093531170
term4 ij =     -0.584810210
term4 ji =     -0.082053607
term4 ij =     -0.324291586
term4 ij =     -0.590069650
term4 ij =     -0.590069650
term4 ji =      0.017210400
term4 ij =     -0.721400108
term4 ji =     -0.096643400
term4 ji =     -0.096643400
term4 ij =     -0.562055962
term4 ji =     -0.052686436
term4 ji =     -0.019021504
term4 ij =     -0.333784043
term4 ij =     -0.590082061
term4 ij =     -0.318645433
term4 ij =     -0.589983713
term4 ji =     -0.096737018
term4 ji =     -0.011638616
term4 ji =     -0.096611511
term4 ij =     -0.589983713
term4 ij =     -0.324671935
term4 ij =     -0.721417387
term4 ji =     -0.096611511
term4 ij =     -0.562055962
term4 ji =      0.017250530
term4 ji =     -0.052707285
term4 ji =     -0.019021504
term4 ij =     -0.556820863
term4 ji =     -0.004469509
term4 ij =     -0.333069794
term4 ji =     -0.321321126
term4 ij =     -0.556820863
term4 ji =     -0.004469509
term4 ij =     -0.333069794
term4 ij =     -0.720602352
term4 ij =     -0.589389631
term4 ji =     -0.321321126
term4 ij =     -0.590082061
term4 ji =     -0.052457368
term4 ij =     -0.555909030
term4 ji =     -0.096375249
term4 ij =     -0.324291586
term4 ji =     -0.096737018
term4 ji =     -0.004463357
term4 ji =      0.017210400
term4 ij =     -0.318645433
term4 ji =     -0.011638616
term4 ij =     -0.589389631
term4 ij =     -0.720585047
term4 ji =     -0.096375249
term4 ji =     -0.052458111
term4 ij =     -0.318222140
term4 ji =      0.000523142
term4 ij =     -0.589408115
term4 ji =     -0.096367109
term4 ij =     -0.584810210
term4 ij =     -0.555990042
term4 ji =     -0.082053607
term4 ji =     -0.004463128
term4 ij =     -0.333784043
term4 ij =     -0.324671935
term4 ji =      0.017250530
term4 ij =     -0.314793474
term4 ji =     -0.007836263
term4 ij =     -0.317536374
term4 ij =     -0.555909030
term4 ji =      0.000548487
term4 ij =     -0.589408115
term4 ij =     -0.555990042
term4 ij =     -0.332408246
term4 ji =     -0.004463357
term4 ij =     -0.314408166
term4 ji =     -0.004463128
term4 ji =     -0.096367109
term4 ij =     -0.317392514
term4 ji =     -0.007828412
term4 ji =      0.000545830
term4 ij =     -0.317536374
term4 ji =      0.000548487
term4 ij =     -0.720602352
term4 ij =     -0.589389631
term4 ji =     -0.052457368
term4 ji =     -0.096375249
term4 ij =     -0.589408115
term4 ji =     -0.096367109
term4 ij =     -0.720585047
term4 ji =     -0.052458111
term4 ij =     -0.589389631
term4 ij =     -0.589408115
term4 ji =     -0.096375249
term4 ji =     -0.096367109
term4 ij =     -0.317392514
term4 ji =      0.000545830
term4 ij =     -0.332408246
term4 ij =     -0.317392514
term4 ji =      0.000545830
term4 ij =     -0.326099230
term4 ji =      0.025614446
term4 ij =     -0.555930061
term4 ij =     -0.589430969
term4 ji =     -0.004463313
term4 ij =     -0.556011069
term4 ji =     -0.096380266
term4 ij =     -0.317392514
term4 ji =     -0.004463819
term4 ij =     -0.314793474
term4 ji =      0.000545830
term4 ji =     -0.007836263
term4 ij =     -0.317536374
term4 ji =      0.000548487
term4 ij =     -0.720630338
term4 ji =     -0.052461599
term4 ij =     -0.589430969
term4 ij =     -0.589412480
term4 ji =     -0.096380266
term4 ji =     -0.096371502
term4 ij =     -0.720613028
term4 ji =     -0.052459256
term4 ij =     -0.314408166
term4 ji =     -0.007828412
term4 ij =     -0.589412480
term4 ji =     -0.096371502
term4 ij =     -0.317536374
term4 ji =      0.000548487
term4 ij =     -0.326111830
term4 ji =      0.025614513
term4 ij =     -0.317404579
term4 ji =      0.000545853
term4 ij =     -0.332421108
term4 ji =     -0.332374280
term4 ij =     -0.720630338
term4 ij =     -0.589412480
term4 ji =     -0.052461599
term4 ji =     -0.096371502
term4 ij =     -0.555930061
term4 ij =     -0.317404579
term4 ij =     -0.314805438
term4 ji =     -0.004463313
term4 ji =      0.000545853
term4 ji =     -0.007836452
term4 ij =     -0.317548437
term4 ji =      0.000548581
term4 ij =     -0.720613028
term4 ji =     -0.052459256
term4 ij =     -0.589430969
term4 ij =     -0.332433994
term4 ji =     -0.096380266
term4 ij =     -0.589412480
term4 ji =     -0.096371502
term4 ij =     -0.314420097
term4 ji =     -0.007828819
term4 ij =     -0.556011069
term4 ji =     -0.004463819
term4 ij =     -0.317548437
term4 ji =      0.000548581
term4 ij =     -0.326111830
term4 ji =      0.025614513
term4 ij =     -0.314805438
term4 ji =     -0.007836452
term4 ij =     -0.332433994
term4 ij =     -0.317548437
term4 ji =      0.000548581
term4 ij =     -0.090854917
term4 ji =     -0.001338525
term4 ij =     -0.116292201
term4 ji =     -0.008812445
term4 ij =     -0.317404579
term4 ij =     -0.314420097
term4 ji =      0.000545853
term4 ji =     -0.007828819
term4 ij =     -0.326124428
term4 ji =      0.025617331
term4 ij =     -0.317548437
term4 ji =      0.000548581
term4 ij =     -0.332421108
term4 ji =     -0.332374280
term4 ij =     -0.089468978
term4 ji =     -0.001148082
term4 ij =     -0.090854631
term4 ji =     -0.001462425
term4 ij =     -0.589430969
term4 ji =     -0.096380266
term4 ij =     -0.116289687
term4 ij =     -0.038914240
term4 ji =     -0.008778786
term4 ji =     -0.000138342
term4 ij =     -0.317404579
term4 ji =      0.000545853
term4 ij =     -0.038381061
term4 ji =     -0.000229867
term4 ij =     -0.089469256
term4 ji =     -0.001133170
term4 ij =     -0.038924279
term4 ji =     -0.000209813
term4 ij =     -0.038380761
term4 ji =     -0.000224459
term4 ij =     -0.120059461
term4 ji =     -0.009644547
term4 ij =     -0.039211090
term4 ji =     -0.000369870
term4 ij =     -0.089469256
term4 ij =     -0.012876495
term4 ji =     -0.001133170
term4 ij =     -0.038381061
term4 ji =     -0.000229867
term4 ij =     -0.038924279
term4 ji =     -0.000209813
term4 ij =     -0.120061593
term4 ji =     -0.009643157
term4 ij =     -0.038914240
term4 ji =     -0.000138342
term4 ij =     -0.038380761
term4 ij =     -0.039410180
term4 ji =     -0.000224459
term4 ji =     -0.000105128
term4 ij =     -0.089468978
term4 ji =     -0.001148082
term4 ij =     -0.039134031
term4 ij =     -0.039472527
term4 ji =     -0.000124802
term4 ji =     -0.000132245
term4 ij =     -0.093217125
term4 ji =     -0.001376925
term4 ij =     -0.039380567
term4 ji =     -0.000118088
term4 ij =     -0.039712430
term4 ij =     -0.039472527
term4 ji =     -0.000124802
term4 ji =     -0.000201418
term4 ij =     -0.039711502
term4 ij =     -0.093217125
term4 ji =     -0.000201549
term4 ji =     -0.001376925
term4 ij =     -0.091748062
term4 ji =     -0.000939669
term4 ij =     -0.039464443
term4 ij =     -0.039712430
term4 ji =     -0.000132116
term4 ji =     -0.000201418
term4 ij =     -0.093218199
term4 ji =     -0.001379015
term4 ij =     -0.039464443
term4 ji =     -0.000132116
term4 ij =     -0.039327416
term4 ji =     -0.000221112
term4 ij =     -0.039711502
term4 ji =     -0.000201549
term4 ij =     -0.016636144
term4 ji =      0.000260922
term4 ij =     -0.091742373
term4 ji =     -0.000915047
term4 ij =     -0.054598436
term4 ji =     -0.002068610
term4 ij =     -0.093218199
term4 ji =     -0.001379015
term4 ij =     -0.009611065
term4 ij =     -0.039327416
term4 ji =     -0.000221112
term4 ij =     -0.016570201
term4 ji =      0.000507554
term4 ij =     -0.015997766
term4 ji =      0.000358136
term4 ij =     -0.016002906
term4 ij =     -0.054596996
term4 ji =      0.000305262
term4 ji =     -0.002030279
term4 ij =     -0.015997766
term4 ij =     -0.039327808
term4 ji =      0.000358136
term4 ji =     -0.000214472
term4 ij =     -0.045164287
term4 ji =     -0.003952954
term4 ij =     -0.039327808
term4 ji =     -0.000214472
term4 ij =     -0.062250754
term4 ji =     -0.001604652
term4 ij =     -0.045416614
term4 ij =     -0.014410715
term4 ji =     -0.000089923
term4 ji =      0.000075251
term4 ij =     -0.003172432
term4 ij =     -0.008706740
term4 ij =     -0.016002906
term4 ji =     -0.008055274
term4 ji =      0.000305262
term4 ij =     -0.045167535
term4 ij =     -0.014410795
term4 ji =     -0.004002607
term4 ji =      0.000073173
term4 ij =     -0.045665506
term4 ji =     -0.000562472
term4 ij =     -0.045134793
term4 ji =     -0.000166062
term4 ij =     -0.014410715
term4 ji =      0.000075251
term4 ij =     -0.051025063
term4 ji =     -0.004552480
term4 ij =     -0.017707400
term4 ji =      0.000112736
term4 ij =     -0.003055117
term4 ij =     -0.045414663
term4 ji =     -0.001645635
term4 ji =     -0.000096847
term4 ij =     -0.062251147
term4 ji =     -0.001601362
term4 ij =     -0.018600181
term4 ji =      0.000225325
term4 ij =     -0.003540204
term4 ji =     -0.002560208
term4 ij =     -0.018600149
term4 ji =      0.000222518
term4 ij =     -0.018635262
term4 ji =      0.000227427
term4 ij =     -0.050493970
term4 ij =     -0.014410795
term4 ji =     -0.004159549
term4 ji =      0.000073173
term4 ij =     -0.017231297
term4 ij =     -0.004933623
term4 ji =      0.000083875
term4 ji =     -0.004335896
term4 ij =     -0.000544103
term4 ji =      0.000271527
term4 ij =     -0.062251147
term4 ji =     -0.001601362
term4 ij =     -0.017118617
term4 ji =      0.000073719
term4 ij =     -0.062250754
term4 ji =     -0.001604652
term4 ij =     -0.004038164
term4 ij =     -0.045414663
term4 ji =     -0.002855489
term4 ji =     -0.000096847
term4 ij =     -0.018600149
term4 ji =      0.000222518
term4 ij =     -0.018600181
term4 ji =      0.000225325
term4 ij =     -0.018635262
term4 ji =      0.000227427
term4 ij =     -0.002219901
term4 ij =     -0.017118617
term4 ji =      0.000073719
term4 ij =     -0.017711657
term4 ji =      0.000109858
term4 ij =     -0.045665506
term4 ji =     -0.000562472
term4 ij =     -0.017711657
term4 ij =     -0.050493970
term4 ji =      0.000109858
term4 ji =     -0.004159549
term4 ij =     -0.018600149
term4 ji =      0.000222518
term4 ij =     -0.018746569
term4 ji =      0.000271487
term4 ij =     -0.018600181
term4 ji =      0.000225325
term4 ij =     -0.045134793
term4 ji =     -0.000166062
term4 ij =     -0.018600181
term4 ji =      0.000225325
term4 ij =     -0.004038164
term4 ji =     -0.002855489
term4 ij =     -0.018746569
term4 ji =      0.000271487
term4 ij =     -0.017707400
term4 ji =      0.000112736
term4 ij =     -0.045883831
term4 ji =     -0.000092730
term4 ij =     -0.017231297
term4 ji =      0.000083875
term4 ij =     -0.018600149
term4 ij =     -0.045979485
term4 ji =      0.000222518
term4 ij =     -0.000506623
term4 ji =     -0.000204569
term4 ji =      0.000340367
term4 ij =     -0.045881813
term4 ji =     -0.000091734
term4 ij =     -0.002219901
term4 ij =     -0.000544103
term4 ji =      0.000271527
term4 ij =     -0.052077735
term4 ij =     -0.045416614
term4 ji =     -0.004900592
term4 ji =     -0.000089923
term4 ij =     -0.018313024
term4 ji =      0.000275569
term4 ij =     -0.051025063
term4 ji =     -0.004552480
term4 ij =     -0.017406533
term4 ji =      0.000159271
term4 ij =     -0.016961790
term4 ji =      0.000104218
term4 ij =     -0.046371853
term4 ji =     -0.000506864
term4 ij =     -0.063590310
term4 ji =     -0.001743333
term4 ij =     -0.003324816
term4 ji =     -0.002559263
term4 ij =     -0.001771463
term4 ji =     -0.001827854
term4 ij =     -0.003187069
term4 ji =     -0.002423187
term4 ij =     -0.051684523
term4 ji =     -0.004596318
term4 ij =     -0.018427454
term4 ij =     -0.017392716
term4 ji =      0.000310349
term4 ji =      0.000163628
term4 ij =     -0.001560296
term4 ij =     -0.018427454
term4 ji =      0.000310349
term4 ij =     -0.016830715
term4 ji =      0.000087969
term4 ij =     -0.003540204
term4 ji =     -0.002560208
term4 ij =     -0.045881813
term4 ji =     -0.000091734
term4 ij =     -0.063589369
term4 ij =     -0.063590310
term4 ji =     -0.001743157
term4 ji =     -0.001743333
term4 ij =     -0.045883831
term4 ji =     -0.000092730
term4 ij =     -0.000255092
term4 ji =      0.000373424
term4 ij =     -0.018427783
term4 ji =      0.000310916
term4 ij =     -0.018313024
term4 ji =      0.000275569
term4 ij =     -0.018427454
term4 ji =      0.000310349
term4 ij =     -0.016961790
term4 ij =     -0.018427454
term4 ij =     -0.000200397
term4 ji =      0.000104218
term4 ji =      0.000310349
term4 ji =      0.000452113
term4 ij =     -0.052077735
term4 ji =     -0.004900592
term4 ij =     -0.063589369
term4 ji =     -0.001743157
term4 ij =     -0.045979485
term4 ji =     -0.000204569
term4 ij =     -0.051684523
term4 ji =     -0.004596318
term4 ij =     -0.003187069
term4 ji =     -0.002423187
term4 ij =     -0.018449300
term4 ji =      0.000299675
term4 ij =     -0.018427783
term4 ji =      0.000310916
term4 ij =     -0.018427783
term4 ji =      0.000310916
term4 ij =     -0.003324816
term4 ji =     -0.002559263
term4 ij =     -0.018449300
term4 ji =      0.000299675
term4 ij =     -0.017406533
term4 ji =      0.000159271
term4 ij =     -0.000255092
term4 ji =      0.000373424
term4 ij =     -0.016830715
term4 ji =      0.000087969
term4 ij =     -0.018427783
term4 ji =      0.000310916
term4 ij =     -0.000038161
term4 ji =      0.000508274
term4 ij =     -0.001771463
term4 ji =     -0.001827854
term4 ij =     -0.046371853
term4 ji =     -0.000506864
term4 ij =     -0.017392716
term4 ji =      0.000163628
term4 ij =     -0.001560296
term4 ij =     -0.000200397
term4 ji =      0.000452113
done (      7.9 sec)
     Startup integrals           ...     0.153 sec
     OBS/OBS integrals           ...     0.774 sec
     CABS/OBS integrals          ...     1.531 sec
     CABS/CABS integrals         ...     0.935 sec
     Vij intermediate            ...     0.023 sec
     fXij intermediate           ...     0.025 sec
     Bij intermediate            ...     3.814 sec
     BS-tilde ij intermediate    ...     0.010 sec
     Vbar-ij intermediate        ...     0.128 sec
     Hartree-Fock correction     ...     0.039 sec
Calculating correlation correction                      ... done (    0.059 sec)

-----------------
RI-MP2-F12 ENERGY
-----------------

EMP2 correlation Energy            :      -1.402519292798
F12 correction                     :      -1.532265513560
                                        -----------------
MP2 basis set limit estimate       :      -2.934784806358

Hartree-Fock energy                :    -831.010905949690
(2)_S CABS correction to EHF       :      -0.030519035325
                                        -----------------
HF basis set limit estimate        :    -831.041424985014

MP2 total energy before F12        :    -832.413425242488
Total F12 correction               :      -1.562784548884
                                        -----------------
Final basis set limit MP2 estimate :    -833.976209791372

  .... cleaning up and leaving MP2-F12

---------------------------------------
MP2 TOTAL ENERGY:     -833.976209791 Eh
---------------------------------------

Maximum memory used throughout the entire MP2-calculation: 144.2 MB

-------------------------   --------------------
FINAL SINGLE POINT ENERGY      -833.976209791372
-------------------------   --------------------


                            ***************************************
                            *     ORCA property calculations      *
                            ***************************************


  WARNING: The energy has been calculated at the MP2 level but the densities
           used in the property calculations are still SCF densities
           MP2 response densities have not been calculated 
           use %mp2 Density relaxed end
           or  %mp2 Density unrelaxed end

                                    ---------------------
                                    Active property flags
                                    ---------------------
   (+) Dipole Moment


------------------------------------------------------------------------------
                       ORCA ELECTRIC PROPERTIES CALCULATION
------------------------------------------------------------------------------

Dipole Moment Calculation                       ... on
Quadrupole Moment Calculation                   ... off
Polarizability Calculation                      ... off
GBWName                                         ... br2.gbw
Electron density                                ... br2.scfp
The origin for moment calculation is the CENTER OF MASS  = ( 0.000000,  0.000000  0.000000)

-------------
DIPOLE MOMENT
-------------
                                X             Y             Z
Electronic contribution:     -0.00000       0.00000      -0.00000
Nuclear contribution   :      0.00000       0.00000       0.00000
                        -----------------------------------------
Total Dipole Moment    :     -0.00000       0.00000      -0.00000
                        -----------------------------------------
Magnitude (a.u.)       :      0.00000
Magnitude (Debye)      :      0.00000



--------------------
Rotational spectrum 
--------------------
 
Rotational constants in cm-1:     0.000000     0.081102     0.081102 
Rotational constants in MHz :     0.000000  2431.365499  2431.365499 

 Dipole components along the rotational axes: 
x,y,z [a.u.] :    -0.000000     0.000000    -0.000000 
x,y,z [Debye]:    -0.000000     0.000000    -0.000000 

 

Timings for individual modules:

Sum of individual times         ...      246.942 sec (=   4.116 min)
GTO integral calculation        ...        2.901 sec (=   0.048 min)   1.2 %
SCF iterations                  ...       71.348 sec (=   1.189 min)  28.9 %
MP2 module                      ...      172.693 sec (=   2.878 min)  69.9 %
                             ****ORCA TERMINATED NORMALLY****
TOTAL RUN TIME: 0 days 0 hours 4 minutes 8 seconds 422 msec
