
 Working directory              : /scratch/emmanous/3821783.pbs01/molpro.hKBJQYrz0f/
 Global scratch directory       : /scratch/emmanous/3821783.pbs01/molpro.hKBJQYrz0f/
 Wavefunction directory         : /home/emmanous/wfu/
 Main file repository           : /scratch/emmanous/3821783.pbs01/molpro.hKBJQYrz0f/

 id        : wis

 Nodes     nprocs
 cff054      16
 GA implementation: MPI file
 GA implementation (serial work in mppx): MPI file

 Using DEFAULT tuning parameter for ncache   :   16384
 Using DEFAULT tuning parameter for mflopdgm :   10000
 Using DEFAULT tuning parameter for mflopdgv :    4000
 Using DEFAULT tuning parameter for mflopmxm :    5000
 Using DEFAULT tuning parameter for mflopmxv :    4000
 Using DEFAULT tuning parameter for mindgm   :       1
 Using DEFAULT tuning parameter for mindgc   :       4
 Using DEFAULT tuning parameter for mindgf   :    5000
 Using DEFAULT tuning parameter for mindgl   :       4
 Using DEFAULT tuning parameter for mindgr   :       1
 Using DEFAULT tuning parameter for mindgv   :      20
 Using DEFAULT tuning parameter for mincuda  :     500
 Using DEFAULT tuning parameter for mxmblk   :      64
 Using DEFAULT tuning parameter for mxmbln   :      64
 Using DEFAULT tuning parameter for nroll    :       2
 Using custom tuning parameter for ngpus     :       0
 Using customized tuning parameters: mindgm=1; mindgv=20; mindgc=4; mindgr=1; noblas=0; minvec=7

 Fortran compiler: integer size=8, double size=8, logical size=8
 default implementation of scratch files=sf  


 Variables initialized (1025), CPU time= 0.01 sec
 gprint,basis
 gthresh,energy=1d-9
 ANGSTROM
 geomtyp=xyz
 charge=0
 multiplicity=1
 nosym
 geom={
 Br ,0.0000 ,0.0000 ,1.1405
 Br ,0.0000 ,0.0000 ,-1.1405
 }
 
 basis={
 default,cc-pVDZ-PP-F12
 set,df
 default,cc-pVDZ-PP-F12/MP2Fit
 set,jk
 default,cc-pVDZ-PP-F12/JKFIT
 set,ri
 default,def2-QZVPP/JKFIT
 }
 {df-hf,df_basis=jk
 wf,,,$multiplicity-1
 print,orbitals
 maxit,300}
 {df-cabs,gem_beta=0.9,df_basis=df,df_basis_exch=jk,ri_basis=ri,thrcabs=1d-9,thrcabs_rel=1d-9;explicit,ignore_bad_singl=1}
 Commands initialized (840), CPU time= 0.01 sec, 684 directives.
 Default parameters read. Elapsed time= 0.07 sec

 Using DEFAULT tuning parameter for mpplat   :       3
 Using DEFAULT tuning parameter for mppspeed :    1600
 Checking input...
 Passed
1


                                         ***  PROGRAM SYSTEM MOLPRO  ***
                                       Copyright, TTI GmbH Stuttgart, 2015
                                    Version 2022.3 linked Wed Nov 30 13:40:34 2022


 **********************************************************************************************************************************
 LABEL *                                                                                 
  64 bit mpp version                                                                     DATE: 13-Jul-23          TIME: 11:20:56  
 **********************************************************************************************************************************

 SHA1:             e31ec9a5ea85254ab76f59d122cbdd51c71cf98b
 **********************************************************************************************************************************

 Memory per process:      1000 MW
 Total memory per node:  16000 MW

 GA preallocation disabled
 GA check disabled

 Variable memory set to 1000.0 MW



 THRESHOLDS:

 ZERO    =  1.00D-12  ONEINT  =  1.00D-12  TWOINT  =  1.00D-11  PREFAC  =  1.00D-14  XXXXXX  =  1.00D-09  EORDER  =  1.00D-04
 ENERGY  =  1.00D-09  ETEST   =  0.00D+00  EDENS   =  0.00D+00  THRDEDEF=  1.00D-06  GRADIENT=  1.00D-05  STEP    =  1.00D-03
 ORBITAL =  1.00D-05  CIVEC   =  1.00D-05  COEFF   =  1.00D-04  PRINTCI =  5.00D-02  PUNCHCI =  9.90D+01  OPTGRAD =  3.00D-04
 OPTENERG=  1.00D-06  OPTSTEP =  3.00D-04  THRGRAD =  1.00D-10  COMPRESS=  1.00D-11  VARMIN  =  1.00D-07  VARMAX  =  1.00D-03
 THRDOUB =  0.00D+00  THRDIV  =  1.00D-05  THRRED  =  1.00D-07  THRPSP  =  1.00D+00  THRDC   =  1.00D-10  THRCS   =  1.00D-10
 THRNRM  =  1.00D-08  THREQ   =  0.00D+00  THRDE   =  1.00D+00  THRREF  =  1.00D-05  SPARFAC =  1.00D+00  THRDLP  =  1.00D-07
 THRDIA  =  1.00D-10  THRDLS  =  1.00D-07  THRGPS  =  0.00D+00  THRKEX  =  0.00D+00  THRDIS  =  2.00D-01  THRVAR  =  1.00D-10
 THRLOC  =  1.00D-06  THRGAP  =  1.00D-06  THRLOCT = -1.00D+00  THRGAPT = -1.00D+00  THRORB  =  1.00D-06  THRMLTP =  0.00D+00
 THRCPQCI=  1.00D-10  KEXTA   =  0.00D+00  THRCOARS=  0.00D+00  SYMTOL  =  1.00D-06  GRADTOL =  1.00D-06  THROVL  =  1.00D-08
 THRORTH =  1.00D-08  THRDLOVL= -1.00D+00  GRID    =  1.00D-06  GRIDMAX =  1.00D-03  DTMAX   =  0.00D+00  THROCCDE=  1.00D-01
 THROCCDE=  1.00D-01  THRPRINT=  2.50D-01

 SETTING GEOMTYP        =    XYZ
 SETTING CHARGE         =      0.0000000D+00                                  
 SETTING MULTIPLICITY   =         1.00000000                                  
 ZSYMEL=NOSYM
 ZUNIT=ANG

 SETTING BASIS          =    CC-PVDZ-PP-F12


 Recomputing integrals since basis changed


 Using spherical harmonics

 Library entry Br   ECP ECP10MDF                 selected for group  1
 Library entry BR     S cc-pVDZ-PP-F12       selected for orbital group  1
 Library entry BR     P cc-pVDZ-PP-F12       selected for orbital group  1
 Library entry BR     D cc-pVDZ-PP-F12       selected for orbital group  1
 Library entry BR     F cc-pVDZ-PP-F12       selected for orbital group  1


 PROGRAM * SEWARD (Integral evaluation for generally contracted gaussian basis sets)     Author: Roland Lindh, 1990

 Geometry written to block  1 of record 700


 Point group  C1  



 ATOMIC COORDINATES

 NR  ATOM    CHARGE       X              Y              Z

   1  BR     25.00    0.000000000    0.000000000    2.155232645
   2  BR     25.00    0.000000000    0.000000000   -2.155232645

 Bond lengths in Bohr (Angstrom)

 1-2  4.310465290
     ( 2.281000000)


          BR  CORE POTENTIAL

          g POTENTIAL

 POWERS             2
 EXPONENTIALS   1.000000    
 COEFFICIENTS   0.000000    

          s - g POTENTIAL

 POWERS             2              2              2
 EXPONENTIALS   70.02426       31.17841       7.156593    
 COEFFICIENTS   49.96283       370.0142       10.24144    

          p - g POTENTIAL

 POWERS             2              2              2              2
 EXPONENTIALS   46.77347       46.18412       21.71386       20.94179    
 COEFFICIENTS   99.11224       198.2530       28.26174       56.62337    

          d - g POTENTIAL

 POWERS             2              2              2              2              2              2
 EXPONENTIALS   50.69884       50.64476       15.44751       15.50026       2.800391       1.077480    
 COEFFICIENTS  -18.60585      -27.92328     -0.3796930     -0.7805830      3.5968000E-02  9.4397000E-02

          f - g POTENTIAL

 POWERS             2              2
 EXPONENTIALS   14.46561       21.23407    
 COEFFICIENTS  -1.091269      -2.887691    


          BR  SPIN-ORBIT POTENTIAL

          p POTENTIAL

 POWERS             2              2              2              2
 EXPONENTIALS   46.77347       46.18412       21.71386       20.94179    
 COEFFICIENTS  -198.2245       198.2530      -56.52348       56.62337    

          d POTENTIAL

 POWERS             2              2              2              2              2              2
 EXPONENTIALS   50.69884       50.64476       15.44751       15.50026       2.800391       1.077480    
 COEFFICIENTS   18.60585      -18.61552      0.3796930     -0.5203890     -3.5968000E-02  6.2931000E-02

          f POTENTIAL

 POWERS             2              2
 EXPONENTIALS   14.46561       21.23407    
 COEFFICIENTS  0.7275130      -1.443846    


          BR  CORE POTENTIAL

          g POTENTIAL

 POWERS             2
 EXPONENTIALS   1.000000    
 COEFFICIENTS   0.000000    

          s - g POTENTIAL

 POWERS             2              2              2
 EXPONENTIALS   70.02426       31.17841       7.156593    
 COEFFICIENTS   49.96283       370.0142       10.24144    

          p - g POTENTIAL

 POWERS             2              2              2              2
 EXPONENTIALS   46.77347       46.18412       21.71386       20.94179    
 COEFFICIENTS   99.11224       198.2530       28.26174       56.62337    

          d - g POTENTIAL

 POWERS             2              2              2              2              2              2
 EXPONENTIALS   50.69884       50.64476       15.44751       15.50026       2.800391       1.077480    
 COEFFICIENTS  -18.60585      -27.92328     -0.3796930     -0.7805830      3.5968000E-02  9.4397000E-02

          f - g POTENTIAL

 POWERS             2              2
 EXPONENTIALS   14.46561       21.23407    
 COEFFICIENTS  -1.091269      -2.887691    


          BR  SPIN-ORBIT POTENTIAL

          p POTENTIAL

 POWERS             2              2              2              2
 EXPONENTIALS   46.77347       46.18412       21.71386       20.94179    
 COEFFICIENTS  -198.2245       198.2530      -56.52348       56.62337    

          d POTENTIAL

 POWERS             2              2              2              2              2              2
 EXPONENTIALS   50.69884       50.64476       15.44751       15.50026       2.800391       1.077480    
 COEFFICIENTS   18.60585      -18.61552      0.3796930     -0.5203890     -3.5968000E-02  6.2931000E-02

          f POTENTIAL

 POWERS             2              2
 EXPONENTIALS   14.46561       21.23407    
 COEFFICIENTS  0.7275130      -1.443846    


 BASIS DATA

   Nr Sym  Nuc  Type         Exponents   Contraction coefficients

    1.1 A     1  1s        9659.390000     0.000371   -0.000152    0.000000    0.000000    0.000000
    2.1 A                  1455.960000     0.002571   -0.001008    0.000000    0.000000    0.000000
    3.1 A                   325.914000     0.008485   -0.003609    0.000000    0.000000    0.000000
    4.1 A                    46.565700     0.078222   -0.027872    0.000000    0.000000    0.000000
    5.1 A                    18.246900    -0.397149    0.151317    0.000000    0.000000    0.000000
                              3.802010     0.685864   -0.351497    0.000000    0.000000    0.000000
                              1.786320     0.486819   -0.410703    0.000000    0.000000    0.000000
                              0.602714     0.034913    0.347316    1.000000    0.000000    0.000000
                              0.284014    -0.006573    0.675491    0.000000    1.000000    0.000000
                              0.120271     0.001642    0.244008    0.000000    0.000000    1.000000
    6.1 A     1  1s           0.044500     1.000000
    7.1 A     1  2px        492.187000     0.000472
                             92.364200     0.005494
                             27.071800    -0.088030
                              7.265390     0.343485
                              3.484810     0.510208
                              1.640480     0.248631
                              0.648570     0.022201
                              0.256407    -0.000419
                              0.095304     0.000656
    8.1 A     1  2py        492.187000     0.000472
                             92.364200     0.005494
                             27.071800    -0.088030
                              7.265390     0.343485
                              3.484810     0.510208
                              1.640480     0.248631
                              0.648570     0.022201
                              0.256407    -0.000419
                              0.095304     0.000656
    9.1 A     1  2pz        492.187000     0.000472
                             92.364200     0.005494
                             27.071800    -0.088030
                              7.265390     0.343485
                              3.484810     0.510208
                              1.640480     0.248631
                              0.648570     0.022201
                              0.256407    -0.000419
                              0.095304     0.000656
   10.1 A     1  2px        492.187000    -0.000158
                             92.364200    -0.001344
                             27.071800     0.024616
                              7.265390    -0.112532
                              3.484810    -0.179775
                              1.640480    -0.073661
                              0.648570     0.348734
                              0.256407     0.557948
                              0.095304     0.266456
   11.1 A     1  2py        492.187000    -0.000158
                             92.364200    -0.001344
                             27.071800     0.024616
                              7.265390    -0.112532
                              3.484810    -0.179775
                              1.640480    -0.073661
                              0.648570     0.348734
                              0.256407     0.557948
                              0.095304     0.266456
   12.1 A     1  2pz        492.187000    -0.000158
                             92.364200    -0.001344
                             27.071800     0.024616
                              7.265390    -0.112532
                              3.484810    -0.179775
                              1.640480    -0.073661
                              0.648570     0.348734
                              0.256407     0.557948
                              0.095304     0.266456
   13.1 A     1  2px          0.766600     1.000000
   14.1 A     1  2py          0.766600     1.000000
   15.1 A     1  2pz          0.766600     1.000000
   16.1 A     1  2px          0.118200     1.000000
   17.1 A     1  2py          0.118200     1.000000
   18.1 A     1  2pz          0.118200     1.000000
   19.1 A     1  2px          0.039600     1.000000
   20.1 A     1  2py          0.039600     1.000000
   21.1 A     1  2pz          0.039600     1.000000
   22.1 A     1  3d0        338.996000     0.001524
                            103.217000     0.015673
                             42.363800     0.072400
                             18.435600     0.186303
                              8.372540     0.323881
                              3.802220     0.374534
                              1.686770     0.257418
                              0.677520     0.068051
   23.1 A     1  3d2-       338.996000     0.001524
                            103.217000     0.015673
                             42.363800     0.072400
                             18.435600     0.186303
                              8.372540     0.323881
                              3.802220     0.374534
                              1.686770     0.257418
                              0.677520     0.068051
   24.1 A     1  3d1+       338.996000     0.001524
                            103.217000     0.015673
                             42.363800     0.072400
                             18.435600     0.186303
                              8.372540     0.323881
                              3.802220     0.374534
                              1.686770     0.257418
                              0.677520     0.068051
   25.1 A     1  3d2+       338.996000     0.001524
                            103.217000     0.015673
                             42.363800     0.072400
                             18.435600     0.186303
                              8.372540     0.323881
                              3.802220     0.374534
                              1.686770     0.257418
                              0.677520     0.068051
   26.1 A     1  3d1-       338.996000     0.001524
                            103.217000     0.015673
                             42.363800     0.072400
                             18.435600     0.186303
                              8.372540     0.323881
                              3.802220     0.374534
                              1.686770     0.257418
                              0.677520     0.068051
   27.1 A     1  3d0          2.108700     1.000000
   28.1 A     1  3d2-         2.108700     1.000000
   29.1 A     1  3d1+         2.108700     1.000000
   30.1 A     1  3d2+         2.108700     1.000000
   31.1 A     1  3d1-         2.108700     1.000000
   32.1 A     1  3d0          0.477500     1.000000
   33.1 A     1  3d2-         0.477500     1.000000
   34.1 A     1  3d1+         0.477500     1.000000
   35.1 A     1  3d2+         0.477500     1.000000
   36.1 A     1  3d1-         0.477500     1.000000
   37.1 A     1  3d0          0.182800     1.000000
   38.1 A     1  3d2-         0.182800     1.000000
   39.1 A     1  3d1+         0.182800     1.000000
   40.1 A     1  3d2+         0.182800     1.000000
   41.1 A     1  3d1-         0.182800     1.000000
   42.1 A     1  4f1+         2.271800     1.000000
   43.1 A     1  4f1-         2.271800     1.000000
   44.1 A     1  4f0          2.271800     1.000000
   45.1 A     1  4f3+         2.271800     1.000000
   46.1 A     1  4f2-         2.271800     1.000000
   47.1 A     1  4f3-         2.271800     1.000000
   48.1 A     1  4f2+         2.271800     1.000000
   49.1 A     2  1s        9659.390000     0.000371   -0.000152    0.000000    0.000000    0.000000
   50.1 A                  1455.960000     0.002571   -0.001008    0.000000    0.000000    0.000000
   51.1 A                   325.914000     0.008485   -0.003609    0.000000    0.000000    0.000000
   52.1 A                    46.565700     0.078222   -0.027872    0.000000    0.000000    0.000000
   53.1 A                    18.246900    -0.397149    0.151317    0.000000    0.000000    0.000000
                              3.802010     0.685864   -0.351497    0.000000    0.000000    0.000000
                              1.786320     0.486819   -0.410703    0.000000    0.000000    0.000000
                              0.602714     0.034913    0.347316    1.000000    0.000000    0.000000
                              0.284014    -0.006573    0.675491    0.000000    1.000000    0.000000
                              0.120271     0.001642    0.244008    0.000000    0.000000    1.000000
   54.1 A     2  1s           0.044500     1.000000
   55.1 A     2  2px        492.187000     0.000472
                             92.364200     0.005494
                             27.071800    -0.088030
                              7.265390     0.343485
                              3.484810     0.510208
                              1.640480     0.248631
                              0.648570     0.022201
                              0.256407    -0.000419
                              0.095304     0.000656
   56.1 A     2  2py        492.187000     0.000472
                             92.364200     0.005494
                             27.071800    -0.088030
                              7.265390     0.343485
                              3.484810     0.510208
                              1.640480     0.248631
                              0.648570     0.022201
                              0.256407    -0.000419
                              0.095304     0.000656
   57.1 A     2  2pz        492.187000     0.000472
                             92.364200     0.005494
                             27.071800    -0.088030
                              7.265390     0.343485
                              3.484810     0.510208
                              1.640480     0.248631
                              0.648570     0.022201
                              0.256407    -0.000419
                              0.095304     0.000656
   58.1 A     2  2px        492.187000    -0.000158
                             92.364200    -0.001344
                             27.071800     0.024616
                              7.265390    -0.112532
                              3.484810    -0.179775
                              1.640480    -0.073661
                              0.648570     0.348734
                              0.256407     0.557948
                              0.095304     0.266456
   59.1 A     2  2py        492.187000    -0.000158
                             92.364200    -0.001344
                             27.071800     0.024616
                              7.265390    -0.112532
                              3.484810    -0.179775
                              1.640480    -0.073661
                              0.648570     0.348734
                              0.256407     0.557948
                              0.095304     0.266456
   60.1 A     2  2pz        492.187000    -0.000158
                             92.364200    -0.001344
                             27.071800     0.024616
                              7.265390    -0.112532
                              3.484810    -0.179775
                              1.640480    -0.073661
                              0.648570     0.348734
                              0.256407     0.557948
                              0.095304     0.266456
   61.1 A     2  2px          0.766600     1.000000
   62.1 A     2  2py          0.766600     1.000000
   63.1 A     2  2pz          0.766600     1.000000
   64.1 A     2  2px          0.118200     1.000000
   65.1 A     2  2py          0.118200     1.000000
   66.1 A     2  2pz          0.118200     1.000000
   67.1 A     2  2px          0.039600     1.000000
   68.1 A     2  2py          0.039600     1.000000
   69.1 A     2  2pz          0.039600     1.000000
   70.1 A     2  3d0        338.996000     0.001524
                            103.217000     0.015673
                             42.363800     0.072400
                             18.435600     0.186303
                              8.372540     0.323881
                              3.802220     0.374534
                              1.686770     0.257418
                              0.677520     0.068051
   71.1 A     2  3d2-       338.996000     0.001524
                            103.217000     0.015673
                             42.363800     0.072400
                             18.435600     0.186303
                              8.372540     0.323881
                              3.802220     0.374534
                              1.686770     0.257418
                              0.677520     0.068051
   72.1 A     2  3d1+       338.996000     0.001524
                            103.217000     0.015673
                             42.363800     0.072400
                             18.435600     0.186303
                              8.372540     0.323881
                              3.802220     0.374534
                              1.686770     0.257418
                              0.677520     0.068051
   73.1 A     2  3d2+       338.996000     0.001524
                            103.217000     0.015673
                             42.363800     0.072400
                             18.435600     0.186303
                              8.372540     0.323881
                              3.802220     0.374534
                              1.686770     0.257418
                              0.677520     0.068051
   74.1 A     2  3d1-       338.996000     0.001524
                            103.217000     0.015673
                             42.363800     0.072400
                             18.435600     0.186303
                              8.372540     0.323881
                              3.802220     0.374534
                              1.686770     0.257418
                              0.677520     0.068051
   75.1 A     2  3d0          2.108700     1.000000
   76.1 A     2  3d2-         2.108700     1.000000
   77.1 A     2  3d1+         2.108700     1.000000
   78.1 A     2  3d2+         2.108700     1.000000
   79.1 A     2  3d1-         2.108700     1.000000
   80.1 A     2  3d0          0.477500     1.000000
   81.1 A     2  3d2-         0.477500     1.000000
   82.1 A     2  3d1+         0.477500     1.000000
   83.1 A     2  3d2+         0.477500     1.000000
   84.1 A     2  3d1-         0.477500     1.000000
   85.1 A     2  3d0          0.182800     1.000000
   86.1 A     2  3d2-         0.182800     1.000000
   87.1 A     2  3d1+         0.182800     1.000000
   88.1 A     2  3d2+         0.182800     1.000000
   89.1 A     2  3d1-         0.182800     1.000000
   90.1 A     2  4f1+         2.271800     1.000000
   91.1 A     2  4f1-         2.271800     1.000000
   92.1 A     2  4f0          2.271800     1.000000
   93.1 A     2  4f3+         2.271800     1.000000
   94.1 A     2  4f2-         2.271800     1.000000
   95.1 A     2  4f3-         2.271800     1.000000
   96.1 A     2  4f2+         2.271800     1.000000

 NUCLEAR CHARGE:                   50
 NUMBER OF PRIMITIVE AOS:         246
 NUMBER OF SYMMETRY AOS:          218
 NUMBER OF CONTRACTIONS:           96   (   96A   )
 NUMBER OF INNER CORE ORBITALS:     0   (    0A   )
 NUMBER OF OUTER CORE ORBITALS:    18   (   18A   )
 NUMBER OF VALENCE ORBITALS:        8   (    8A   )


 LX: A            LY: A            LZ: A  


 NUCLEAR REPULSION ENERGY  144.99594775


 Library entry BR     S VDZ-PP-F12_MP2       selected for DF group  1
 Library entry BR     P VDZ-PP-F12_MP2       selected for DF group  1
 Library entry BR     D VDZ-PP-F12_MP2       selected for DF group  1
 Library entry BR     F VDZ-PP-F12_MP2       selected for DF group  1
 Library entry BR     G VDZ-PP-F12_MP2       selected for DF group  1
 Library entry BR     H VDZ-PP-F12_MP2       selected for DF group  1
 Basis set:    DF
 Basis size:   408
 Sphericals:   T
 =======================================
 Centre l       exponent    contractions
 =======================================

    1   s      40.977800      1.000000
    1   s      22.094000      1.000000
    1   s      14.156900      1.000000
    1   s       6.309330      1.000000
    1   s       3.498930      1.000000
    1   s       2.071450      1.000000
    1   s       1.224110      1.000000
    1   s       0.706125      1.000000
    1   s       0.421245      1.000000
    1   s       0.235424      1.000000
    1   s       0.133413      1.000000

    1   p      31.577900      1.000000
    1   p      17.701200      1.000000
    1   p      10.367300      1.000000
    1   p       5.568290      1.000000
    1   p       3.347250      1.000000
    1   p       1.862050      1.000000
    1   p       1.128140      1.000000
    1   p       0.520803      1.000000
    1   p       0.290648      1.000000
    1   p       0.155863      1.000000

    1   d      35.441900      1.000000
    1   d      14.409500      1.000000
    1   d       7.137280      1.000000
    1   d       4.024290      1.000000
    1   d       2.199010      1.000000
    1   d       1.181210      1.000000
    1   d       0.537101      1.000000
    1   d       0.320289      1.000000
    1   d       0.151982      1.000000

    1   f      16.628300      1.000000
    1   f       7.926390      1.000000
    1   f       3.692630      1.000000
    1   f       1.899670      1.000000
    1   f       1.021710      1.000000
    1   f       0.418748      1.000000

    1   g      58.302200      1.000000
    1   g      21.935600      1.000000
    1   g       7.851600      1.000000
    1   g       5.609370      1.000000
    1   g       2.043340      1.000000
    1   g       1.375290      1.000000

    1   h       7.514530      1.000000
    1   h       3.150890      1.000000

    2   s      40.977800      1.000000
    2   s      22.094000      1.000000
    2   s      14.156900      1.000000
    2   s       6.309330      1.000000
    2   s       3.498930      1.000000
    2   s       2.071450      1.000000
    2   s       1.224110      1.000000
    2   s       0.706125      1.000000
    2   s       0.421245      1.000000
    2   s       0.235424      1.000000
    2   s       0.133413      1.000000

    2   p      31.577900      1.000000
    2   p      17.701200      1.000000
    2   p      10.367300      1.000000
    2   p       5.568290      1.000000
    2   p       3.347250      1.000000
    2   p       1.862050      1.000000
    2   p       1.128140      1.000000
    2   p       0.520803      1.000000
    2   p       0.290648      1.000000
    2   p       0.155863      1.000000

    2   d      35.441900      1.000000
    2   d      14.409500      1.000000
    2   d       7.137280      1.000000
    2   d       4.024290      1.000000
    2   d       2.199010      1.000000
    2   d       1.181210      1.000000
    2   d       0.537101      1.000000
    2   d       0.320289      1.000000
    2   d       0.151982      1.000000

    2   f      16.628300      1.000000
    2   f       7.926390      1.000000
    2   f       3.692630      1.000000
    2   f       1.899670      1.000000
    2   f       1.021710      1.000000
    2   f       0.418748      1.000000

    2   g      58.302200      1.000000
    2   g      21.935600      1.000000
    2   g       7.851600      1.000000
    2   g       5.609370      1.000000
    2   g       2.043340      1.000000
    2   g       1.375290      1.000000

    2   h       7.514530      1.000000
    2   h       3.150890      1.000000
 =======================================

 Library entry BR     S def2-QZVPP-JKFIT     selected for JK group  1
 Library entry BR     P def2-QZVPP-JKFIT     selected for JK group  1
 Library entry BR     D def2-QZVPP-JKFIT     selected for JK group  1
 Library entry BR     F def2-QZVPP-JKFIT     selected for JK group  1
 Library entry BR     G def2-QZVPP-JKFIT     selected for JK group  1
 Library entry BR     H def2-QZVPP-JKFIT     selected for JK group  1
 Basis set:    JK
 Basis size:   532
 Sphericals:   T
 =======================================
 Centre l       exponent    contractions
 =======================================

    1   s   18095.306651      0.145063
    1   s    8408.841805      0.057914
    1   s    4014.768514      0.412299
    1   s    1967.734255      0.482317

    1   s     989.106218      1.000000
    1   s     509.376962      1.000000
    1   s     268.450697      1.000000
    1   s     144.606194      1.000000
    1   s      79.512228      1.000000
    1   s      44.564896      1.000000
    1   s      25.422121      1.000000
    1   s      14.736716      1.000000
    1   s       8.666305      1.000000
    1   s       5.161222      1.000000
    1   s       3.107187      1.000000
    1   s       1.887394      1.000000
    1   s       1.154516      1.000000
    1   s       0.709780      1.000000
    1   s       0.437688      1.000000
    1   s       0.270175      1.000000

    1   p    3076.100366      0.165169
    1   p    1316.038916      0.368721

    1   p     577.112256      1.000000
    1   p     258.987909      1.000000
    1   p     118.734033      1.000000
    1   p      55.506313      1.000000
    1   p      26.407305      1.000000
    1   p      12.758945      1.000000
    1   p       6.246898      1.000000
    1   p       3.092313      1.000000
    1   p       1.544004      1.000000
    1   p       0.775727      1.000000
    1   p       0.391197      1.000000
    1   p       0.197526      1.000000

    1   d     826.570903      0.261853
    1   d     298.354501      0.965108

    1   d     133.246635      1.000000
    1   d      63.670862      1.000000
    1   d      29.183415      1.000000
    1   d      13.061102      1.000000
    1   d       6.429000      1.000000
    1   d       3.105967      1.000000
    1   d       1.519500      1.000000
    1   d       0.750743      1.000000
    1   d       0.373568      1.000000
    1   d       0.186686      1.000000
    1   d       0.093428      1.000000

    1   f     313.252570      0.226938
    1   f     120.080711      0.973909

    1   f      55.096696      1.000000
    1   f      27.041382      1.000000
    1   f      13.017646      1.000000
    1   f       6.280999      1.000000
    1   f       2.880246      1.000000
    1   f       1.385371      1.000000
    1   f       0.737292      1.000000
    1   f       0.364923      1.000000

    1   g     112.137412      0.197560
    1   g      42.959550      0.980291

    1   g      18.858800      1.000000
    1   g       8.579437      1.000000
    1   g       3.927493      1.000000
    1   g       1.624022      1.000000
    1   g       0.761551      1.000000

    1   h       9.434703      1.000000
    1   h       3.144901      1.000000
    1   h       1.048300      1.000000

    2   s   18095.306651      0.145063
    2   s    8408.841805      0.057914
    2   s    4014.768514      0.412299
    2   s    1967.734255      0.482317

    2   s     989.106218      1.000000
    2   s     509.376962      1.000000
    2   s     268.450697      1.000000
    2   s     144.606194      1.000000
    2   s      79.512228      1.000000
    2   s      44.564896      1.000000
    2   s      25.422121      1.000000
    2   s      14.736716      1.000000
    2   s       8.666305      1.000000
    2   s       5.161222      1.000000
    2   s       3.107187      1.000000
    2   s       1.887394      1.000000
    2   s       1.154516      1.000000
    2   s       0.709780      1.000000
    2   s       0.437688      1.000000
    2   s       0.270175      1.000000

    2   p    3076.100366      0.165169
    2   p    1316.038916      0.368721

    2   p     577.112256      1.000000
    2   p     258.987909      1.000000
    2   p     118.734033      1.000000
    2   p      55.506313      1.000000
    2   p      26.407305      1.000000
    2   p      12.758945      1.000000
    2   p       6.246898      1.000000
    2   p       3.092313      1.000000
    2   p       1.544004      1.000000
    2   p       0.775727      1.000000
    2   p       0.391197      1.000000
    2   p       0.197526      1.000000

    2   d     826.570903      0.261853
    2   d     298.354501      0.965108

    2   d     133.246635      1.000000
    2   d      63.670862      1.000000
    2   d      29.183415      1.000000
    2   d      13.061102      1.000000
    2   d       6.429000      1.000000
    2   d       3.105967      1.000000
    2   d       1.519500      1.000000
    2   d       0.750743      1.000000
    2   d       0.373568      1.000000
    2   d       0.186686      1.000000
    2   d       0.093428      1.000000

    2   f     313.252570      0.226938
    2   f     120.080711      0.973909

    2   f      55.096696      1.000000
    2   f      27.041382      1.000000
    2   f      13.017646      1.000000
    2   f       6.280999      1.000000
    2   f       2.880246      1.000000
    2   f       1.385371      1.000000
    2   f       0.737292      1.000000
    2   f       0.364923      1.000000

    2   g     112.137412      0.197560
    2   g      42.959550      0.980291

    2   g      18.858800      1.000000
    2   g       8.579437      1.000000
    2   g       3.927493      1.000000
    2   g       1.624022      1.000000
    2   g       0.761551      1.000000

    2   h       9.434703      1.000000
    2   h       3.144901      1.000000
    2   h       1.048300      1.000000
 =======================================

 Library entry BR     S def2-QZVPP-JKFIT     selected for RI group  1
 Library entry BR     P def2-QZVPP-JKFIT     selected for RI group  1
 Library entry BR     D def2-QZVPP-JKFIT     selected for RI group  1
 Library entry BR     F def2-QZVPP-JKFIT     selected for RI group  1
 Library entry BR     G def2-QZVPP-JKFIT     selected for RI group  1
 Library entry BR     H def2-QZVPP-JKFIT     selected for RI group  1
 Basis set:    RI
 Basis size:   532
 Sphericals:   T
 =======================================
 Centre l       exponent    contractions
 =======================================

    1   s   18095.306651      0.145063
    1   s    8408.841805      0.057914
    1   s    4014.768514      0.412299
    1   s    1967.734255      0.482317

    1   s     989.106218      1.000000
    1   s     509.376962      1.000000
    1   s     268.450697      1.000000
    1   s     144.606194      1.000000
    1   s      79.512228      1.000000
    1   s      44.564896      1.000000
    1   s      25.422121      1.000000
    1   s      14.736716      1.000000
    1   s       8.666305      1.000000
    1   s       5.161222      1.000000
    1   s       3.107187      1.000000
    1   s       1.887394      1.000000
    1   s       1.154516      1.000000
    1   s       0.709780      1.000000
    1   s       0.437688      1.000000
    1   s       0.270175      1.000000

    1   p    3076.100366      0.165169
    1   p    1316.038916      0.368721

    1   p     577.112256      1.000000
    1   p     258.987909      1.000000
    1   p     118.734033      1.000000
    1   p      55.506313      1.000000
    1   p      26.407305      1.000000
    1   p      12.758945      1.000000
    1   p       6.246898      1.000000
    1   p       3.092313      1.000000
    1   p       1.544004      1.000000
    1   p       0.775727      1.000000
    1   p       0.391197      1.000000
    1   p       0.197526      1.000000

    1   d     826.570903      0.261853
    1   d     298.354501      0.965108

    1   d     133.246635      1.000000
    1   d      63.670862      1.000000
    1   d      29.183415      1.000000
    1   d      13.061102      1.000000
    1   d       6.429000      1.000000
    1   d       3.105967      1.000000
    1   d       1.519500      1.000000
    1   d       0.750743      1.000000
    1   d       0.373568      1.000000
    1   d       0.186686      1.000000
    1   d       0.093428      1.000000

    1   f     313.252570      0.226938
    1   f     120.080711      0.973909

    1   f      55.096696      1.000000
    1   f      27.041382      1.000000
    1   f      13.017646      1.000000
    1   f       6.280999      1.000000
    1   f       2.880246      1.000000
    1   f       1.385371      1.000000
    1   f       0.737292      1.000000
    1   f       0.364923      1.000000

    1   g     112.137412      0.197560
    1   g      42.959550      0.980291

    1   g      18.858800      1.000000
    1   g       8.579437      1.000000
    1   g       3.927493      1.000000
    1   g       1.624022      1.000000
    1   g       0.761551      1.000000

    1   h       9.434703      1.000000
    1   h       3.144901      1.000000
    1   h       1.048300      1.000000

    2   s   18095.306651      0.145063
    2   s    8408.841805      0.057914
    2   s    4014.768514      0.412299
    2   s    1967.734255      0.482317

    2   s     989.106218      1.000000
    2   s     509.376962      1.000000
    2   s     268.450697      1.000000
    2   s     144.606194      1.000000
    2   s      79.512228      1.000000
    2   s      44.564896      1.000000
    2   s      25.422121      1.000000
    2   s      14.736716      1.000000
    2   s       8.666305      1.000000
    2   s       5.161222      1.000000
    2   s       3.107187      1.000000
    2   s       1.887394      1.000000
    2   s       1.154516      1.000000
    2   s       0.709780      1.000000
    2   s       0.437688      1.000000
    2   s       0.270175      1.000000

    2   p    3076.100366      0.165169
    2   p    1316.038916      0.368721

    2   p     577.112256      1.000000
    2   p     258.987909      1.000000
    2   p     118.734033      1.000000
    2   p      55.506313      1.000000
    2   p      26.407305      1.000000
    2   p      12.758945      1.000000
    2   p       6.246898      1.000000
    2   p       3.092313      1.000000
    2   p       1.544004      1.000000
    2   p       0.775727      1.000000
    2   p       0.391197      1.000000
    2   p       0.197526      1.000000

    2   d     826.570903      0.261853
    2   d     298.354501      0.965108

    2   d     133.246635      1.000000
    2   d      63.670862      1.000000
    2   d      29.183415      1.000000
    2   d      13.061102      1.000000
    2   d       6.429000      1.000000
    2   d       3.105967      1.000000
    2   d       1.519500      1.000000
    2   d       0.750743      1.000000
    2   d       0.373568      1.000000
    2   d       0.186686      1.000000
    2   d       0.093428      1.000000

    2   f     313.252570      0.226938
    2   f     120.080711      0.973909

    2   f      55.096696      1.000000
    2   f      27.041382      1.000000
    2   f      13.017646      1.000000
    2   f       6.280999      1.000000
    2   f       2.880246      1.000000
    2   f       1.385371      1.000000
    2   f       0.737292      1.000000
    2   f       0.364923      1.000000

    2   g     112.137412      0.197560
    2   g      42.959550      0.980291

    2   g      18.858800      1.000000
    2   g       8.579437      1.000000
    2   g       3.927493      1.000000
    2   g       1.624022      1.000000
    2   g       0.761551      1.000000

    2   h       9.434703      1.000000
    2   h       3.144901      1.000000
    2   h       1.048300      1.000000
 =======================================


 **********************************************************************************************************************************

 EXTRA SYMMETRY OF AOS IN SYMMETRY 1:   1 1 1 1 1 1 2 3 1 2   3 1 2 3 1 2 3 1 2 3   1 1 4 2 5 3 1 4 2 5   3 1 4 2 5 3 1 4 2 5
                                        3 2 3 1 6 4 7 5 1 1   1 1 1 1 2 3 1 2 3 1   2 3 1 2 3 1 2 3 1 1   4 2 5 3 1 4 2 5 3 1
                                        4 2 5 3 1 4 2 5 3 2   3 1 6 4 7 5


 Eigenvalues of metric

         1 0.137E-02 0.159E-02 0.187E-02 0.379E-02 0.840E-02 0.119E-01 0.121E-01 0.121E-01


 OPERATOR DM      FOR CENTER  0  COORDINATES:    0.000000    0.000000    0.000000


 **********************************************************************************************************************************
 DATASETS  * FILE   NREC   LENGTH (MB)   RECORD NAMES
              1      19       29.07       500      610      700      900      950      970     1000      129      960     1100   
                                          VAR    BASINP    GEOM    SYMINP    ZMAT    AOBASIS   BASIS     P2S    ABASIS      S 
                                         1400     1410     1420     1200     1210     1080     1700     1600     1650   
                                           T        V       ECP      H0       H01     AOSYM    OPER      SMH    MOLCAS    

 PROGRAMS   *        TOTAL       INT
 CPU TIMES  *         0.44      0.30
 REAL TIME  *         1.14 SEC
 DISK USED  *        29.38 MB (local),      470.07 MB (total)
 GA USED    *         0.00 MB       (max)       0.00 MB       (current)
 **********************************************************************************************************************************


 Program * Restricted Hartree-Fock

 Coulomb and exchange fitting
 Thresholds for fitting:       THRAO_COUL= 1.0D-15    THRAO_EXCH= 1.0D-13    THRMO= 1.0D-12    THRPROD= 1.0D-12    THRASM= 1.0D-12
                               THR2HLF=    1.0D-12

 Basis set JK loaded. Number of basis functions: 532

 Orbital guess generated from atomic densities. Full valence occupancy:   26
 Using density fitting in orbital guess


 Initial occupancy:  25

 NELEC=   50   SYM=1   MS2= 0   THRE=1.0D-11   THRD=1.0D-06   THRG=1.0D-06  HFMA2=F  DIIS_START=2   DIIS_MAX=10   DIIS_INCORE=F

 Level shifts:    0.00 (CLOSED)    0.00 (OPEN)    0.30 (GAP_MIN)

 ITER           ETOT              DE          GRAD        DDIFF     DIIS  NEXP   TIME(IT)  TIME(TOT)  DIAG
   1     -830.98870272    -830.98870272     0.00D+00     0.15D+00     0     0       0.03      0.06    start
   2     -830.99856802      -0.00986529     0.27D-02     0.57D-02     1     0       0.03      0.09    diag
   3     -831.00061391      -0.00204589     0.15D-02     0.10D-02     2     0       0.02      0.11    diag
   4     -831.00074877      -0.00013486     0.20D-03     0.30D-03     3     0       0.02      0.13    diag
   5     -831.00076000      -0.00001123     0.60D-04     0.88D-04     4     0       0.03      0.16    diag
   6     -831.00076076      -0.00000076     0.17D-04     0.25D-04     5     0       0.02      0.18    diag
   7     -831.00076078      -0.00000002     0.34D-05     0.54D-05     6     0       0.02      0.20    diag
   8     -831.00076078      -0.00000000     0.44D-06     0.12D-05     7     0       0.03      0.23    fixocc
   9     -831.00076078      -0.00000000     0.46D-07     0.11D-06     8     0       0.02      0.25    diag
  10     -831.00076078       0.00000000     0.57D-08     0.12D-07     0     0       0.02      0.27    diag/orth

 Final occupancy:  25

 !RHF STATE 1.1 Energy               -831.000760778499
  RHF One-electron energy           -1748.702289691355
  RHF Two-electron energy             772.705581164336
  RHF Kinetic energy                  591.467496748099
  RHF Nuclear energy                  144.995947748520
  RHF Virial quotient                  -1.404981280201

 !RHF STATE 1.1 Dipole moment           0.00000000     0.00000000     0.00000000
 Dipole moment /Debye                   0.00000000     0.00000000     0.00000000

 ELECTRON ORBITALS
 =================

  Orbital  Occupation    Energy    Cen Mu Typ  Coefficients
    1.1     2.00000    -9.87344     1  1  s    0.70714    2  1  s    0.70714
    2.1     2.00000    -9.87338     1  1  s    0.70719    2  1  s   -0.70719
    3.1     2.00000    -7.62909     1  1  pz   0.70559    2  1  pz  -0.70559
    4.1     2.00000    -7.62895     1  1  pz   0.70536    2  1  pz   0.70536
    5.1     2.00000    -7.61581     1  1  px   0.55616    1  1  py  -0.43763    2  1  px   0.55616    2  1  py  -0.43763
    6.1     2.00000    -7.61581     1  1  px   0.43763    1  1  py   0.55616    2  1  px   0.43763    2  1  py   0.55616
    7.1     2.00000    -7.61580     1  1  px   0.30792    1  1  py   0.63717    2  1  px  -0.30792    2  1  py  -0.63717
    8.1     2.00000    -7.61580     1  1  px   0.63717    1  1  py  -0.30792    2  1  px  -0.63717    2  1  py   0.30792
    9.1     2.00000    -3.18226     1  1  d0   0.70583    2  1  d0   0.70583
   10.1     2.00000    -3.17985     1  1  d0   0.70685    2  1  d0  -0.70685
   11.1     2.00000    -3.17639     1  1  d1-  0.66285    2  1  d1- -0.66285
   12.1     2.00000    -3.17639     1  1  d1+  0.66285    2  1  d1+ -0.66285
   13.1     2.00000    -3.17562     1  1  d1+ -0.42284    1  1  d1-  0.56653    2  1  d1+ -0.42284    2  1  d1-  0.56653
   14.1     2.00000    -3.17562     1  1  d1+  0.56653    1  1  d1-  0.42284    2  1  d1+  0.56653    2  1  d1-  0.42284
   15.1     2.00000    -3.16234     1  1  d2-  0.70011    2  1  d2-  0.70011
   16.1     2.00000    -3.16234     1  1  d2+  0.70011    2  1  d2+  0.70011
   17.1     2.00000    -3.16229     1  1  d2-  0.70498    2  1  d2- -0.70498
   18.1     2.00000    -3.16229     1  1  d2+  0.70498    2  1  d2+ -0.70498
   19.1     2.00000    -1.12916     1  2  s    0.65002    2  2  s    0.65002
   20.1     2.00000    -0.97949     1  2  s    0.72391    2  2  s   -0.72391
   21.1     2.00000    -0.53627     1  2  pz   0.72105    2  2  pz  -0.72105
   22.1     2.00000    -0.50348     1  2  px   0.66689    2  2  px   0.66689
   23.1     2.00000    -0.50348     1  2  py   0.66689    2  2  py   0.66689
   24.1     2.00000    -0.40510     1  2  py   0.73488    2  2  py  -0.73488
   25.1     2.00000    -0.40510     1  2  px   0.73488    2  2  px  -0.73488


 HOMO     25.1    -0.405103 =     -11.0234eV
 LUMO     26.1    -0.007657 =      -0.2084eV
 LUMO-HOMO         0.397446 =      10.8151eV

 Orbitals saved in record  2100.2


 **********************************************************************************************************************************
 DATASETS  * FILE   NREC   LENGTH (MB)   RECORD NAMES
              1      19       29.07       500      610      700      900      950      970     1000      129      960     1100   
                                          VAR    BASINP    GEOM    SYMINP    ZMAT    AOBASIS   BASIS     P2S    ABASIS      S 
                                         1400     1410     1420     1200     1210     1080     1700     1600     1650   
                                           T        V       ECP      H0       H01     AOSYM    OPER      SMH    MOLCAS    

              2       4        0.52       700     1000      520     2100   
                                         GEOM     BASIS   MCVARS     RHF  

 PROGRAMS   *        TOTAL     DF-HF       INT
 CPU TIMES  *         0.87      0.43      0.30
 REAL TIME  *         2.14 SEC
 DISK USED  *        30.26 MB (local),      484.09 MB (total)
 SF USED    *        10.13 MB
 GA USED    *         0.00 MB       (max)       0.00 MB       (current)
 **********************************************************************************************************************************

 Library entry BR     S VDZ-PP-F12_MP2       selected for DF group  1
 Library entry BR     P VDZ-PP-F12_MP2       selected for DF group  1
 Library entry BR     D VDZ-PP-F12_MP2       selected for DF group  1
 Library entry BR     F VDZ-PP-F12_MP2       selected for DF group  1
 Library entry BR     G VDZ-PP-F12_MP2       selected for DF group  1
 Library entry BR     H VDZ-PP-F12_MP2       selected for DF group  1
 Basis set:    DF
 Basis size:   408
 Sphericals:   T
 =======================================
 Centre l       exponent    contractions
 =======================================

    1   s      40.977800      1.000000
    1   s      22.094000      1.000000
    1   s      14.156900      1.000000
    1   s       6.309330      1.000000
    1   s       3.498930      1.000000
    1   s       2.071450      1.000000
    1   s       1.224110      1.000000
    1   s       0.706125      1.000000
    1   s       0.421245      1.000000
    1   s       0.235424      1.000000
    1   s       0.133413      1.000000

    1   p      31.577900      1.000000
    1   p      17.701200      1.000000
    1   p      10.367300      1.000000
    1   p       5.568290      1.000000
    1   p       3.347250      1.000000
    1   p       1.862050      1.000000
    1   p       1.128140      1.000000
    1   p       0.520803      1.000000
    1   p       0.290648      1.000000
    1   p       0.155863      1.000000

    1   d      35.441900      1.000000
    1   d      14.409500      1.000000
    1   d       7.137280      1.000000
    1   d       4.024290      1.000000
    1   d       2.199010      1.000000
    1   d       1.181210      1.000000
    1   d       0.537101      1.000000
    1   d       0.320289      1.000000
    1   d       0.151982      1.000000

    1   f      16.628300      1.000000
    1   f       7.926390      1.000000
    1   f       3.692630      1.000000
    1   f       1.899670      1.000000
    1   f       1.021710      1.000000
    1   f       0.418748      1.000000

    1   g      58.302200      1.000000
    1   g      21.935600      1.000000
    1   g       7.851600      1.000000
    1   g       5.609370      1.000000
    1   g       2.043340      1.000000
    1   g       1.375290      1.000000

    1   h       7.514530      1.000000
    1   h       3.150890      1.000000

    2   s      40.977800      1.000000
    2   s      22.094000      1.000000
    2   s      14.156900      1.000000
    2   s       6.309330      1.000000
    2   s       3.498930      1.000000
    2   s       2.071450      1.000000
    2   s       1.224110      1.000000
    2   s       0.706125      1.000000
    2   s       0.421245      1.000000
    2   s       0.235424      1.000000
    2   s       0.133413      1.000000

    2   p      31.577900      1.000000
    2   p      17.701200      1.000000
    2   p      10.367300      1.000000
    2   p       5.568290      1.000000
    2   p       3.347250      1.000000
    2   p       1.862050      1.000000
    2   p       1.128140      1.000000
    2   p       0.520803      1.000000
    2   p       0.290648      1.000000
    2   p       0.155863      1.000000

    2   d      35.441900      1.000000
    2   d      14.409500      1.000000
    2   d       7.137280      1.000000
    2   d       4.024290      1.000000
    2   d       2.199010      1.000000
    2   d       1.181210      1.000000
    2   d       0.537101      1.000000
    2   d       0.320289      1.000000
    2   d       0.151982      1.000000

    2   f      16.628300      1.000000
    2   f       7.926390      1.000000
    2   f       3.692630      1.000000
    2   f       1.899670      1.000000
    2   f       1.021710      1.000000
    2   f       0.418748      1.000000

    2   g      58.302200      1.000000
    2   g      21.935600      1.000000
    2   g       7.851600      1.000000
    2   g       5.609370      1.000000
    2   g       2.043340      1.000000
    2   g       1.375290      1.000000

    2   h       7.514530      1.000000
    2   h       3.150890      1.000000
 =======================================

 Library entry BR     S def2-QZVPP-JKFIT     selected for JK group  1
 Library entry BR     P def2-QZVPP-JKFIT     selected for JK group  1
 Library entry BR     D def2-QZVPP-JKFIT     selected for JK group  1
 Library entry BR     F def2-QZVPP-JKFIT     selected for JK group  1
 Library entry BR     G def2-QZVPP-JKFIT     selected for JK group  1
 Library entry BR     H def2-QZVPP-JKFIT     selected for JK group  1
 Basis set:    JK
 Basis size:   532
 Sphericals:   T
 =======================================
 Centre l       exponent    contractions
 =======================================

    1   s   18095.306651      0.145063
    1   s    8408.841805      0.057914
    1   s    4014.768514      0.412299
    1   s    1967.734255      0.482317

    1   s     989.106218      1.000000
    1   s     509.376962      1.000000
    1   s     268.450697      1.000000
    1   s     144.606194      1.000000
    1   s      79.512228      1.000000
    1   s      44.564896      1.000000
    1   s      25.422121      1.000000
    1   s      14.736716      1.000000
    1   s       8.666305      1.000000
    1   s       5.161222      1.000000
    1   s       3.107187      1.000000
    1   s       1.887394      1.000000
    1   s       1.154516      1.000000
    1   s       0.709780      1.000000
    1   s       0.437688      1.000000
    1   s       0.270175      1.000000

    1   p    3076.100366      0.165169
    1   p    1316.038916      0.368721

    1   p     577.112256      1.000000
    1   p     258.987909      1.000000
    1   p     118.734033      1.000000
    1   p      55.506313      1.000000
    1   p      26.407305      1.000000
    1   p      12.758945      1.000000
    1   p       6.246898      1.000000
    1   p       3.092313      1.000000
    1   p       1.544004      1.000000
    1   p       0.775727      1.000000
    1   p       0.391197      1.000000
    1   p       0.197526      1.000000

    1   d     826.570903      0.261853
    1   d     298.354501      0.965108

    1   d     133.246635      1.000000
    1   d      63.670862      1.000000
    1   d      29.183415      1.000000
    1   d      13.061102      1.000000
    1   d       6.429000      1.000000
    1   d       3.105967      1.000000
    1   d       1.519500      1.000000
    1   d       0.750743      1.000000
    1   d       0.373568      1.000000
    1   d       0.186686      1.000000
    1   d       0.093428      1.000000

    1   f     313.252570      0.226938
    1   f     120.080711      0.973909

    1   f      55.096696      1.000000
    1   f      27.041382      1.000000
    1   f      13.017646      1.000000
    1   f       6.280999      1.000000
    1   f       2.880246      1.000000
    1   f       1.385371      1.000000
    1   f       0.737292      1.000000
    1   f       0.364923      1.000000

    1   g     112.137412      0.197560
    1   g      42.959550      0.980291

    1   g      18.858800      1.000000
    1   g       8.579437      1.000000
    1   g       3.927493      1.000000
    1   g       1.624022      1.000000
    1   g       0.761551      1.000000

    1   h       9.434703      1.000000
    1   h       3.144901      1.000000
    1   h       1.048300      1.000000

    2   s   18095.306651      0.145063
    2   s    8408.841805      0.057914
    2   s    4014.768514      0.412299
    2   s    1967.734255      0.482317

    2   s     989.106218      1.000000
    2   s     509.376962      1.000000
    2   s     268.450697      1.000000
    2   s     144.606194      1.000000
    2   s      79.512228      1.000000
    2   s      44.564896      1.000000
    2   s      25.422121      1.000000
    2   s      14.736716      1.000000
    2   s       8.666305      1.000000
    2   s       5.161222      1.000000
    2   s       3.107187      1.000000
    2   s       1.887394      1.000000
    2   s       1.154516      1.000000
    2   s       0.709780      1.000000
    2   s       0.437688      1.000000
    2   s       0.270175      1.000000

    2   p    3076.100366      0.165169
    2   p    1316.038916      0.368721

    2   p     577.112256      1.000000
    2   p     258.987909      1.000000
    2   p     118.734033      1.000000
    2   p      55.506313      1.000000
    2   p      26.407305      1.000000
    2   p      12.758945      1.000000
    2   p       6.246898      1.000000
    2   p       3.092313      1.000000
    2   p       1.544004      1.000000
    2   p       0.775727      1.000000
    2   p       0.391197      1.000000
    2   p       0.197526      1.000000

    2   d     826.570903      0.261853
    2   d     298.354501      0.965108

    2   d     133.246635      1.000000
    2   d      63.670862      1.000000
    2   d      29.183415      1.000000
    2   d      13.061102      1.000000
    2   d       6.429000      1.000000
    2   d       3.105967      1.000000
    2   d       1.519500      1.000000
    2   d       0.750743      1.000000
    2   d       0.373568      1.000000
    2   d       0.186686      1.000000
    2   d       0.093428      1.000000

    2   f     313.252570      0.226938
    2   f     120.080711      0.973909

    2   f      55.096696      1.000000
    2   f      27.041382      1.000000
    2   f      13.017646      1.000000
    2   f       6.280999      1.000000
    2   f       2.880246      1.000000
    2   f       1.385371      1.000000
    2   f       0.737292      1.000000
    2   f       0.364923      1.000000

    2   g     112.137412      0.197560
    2   g      42.959550      0.980291

    2   g      18.858800      1.000000
    2   g       8.579437      1.000000
    2   g       3.927493      1.000000
    2   g       1.624022      1.000000
    2   g       0.761551      1.000000

    2   h       9.434703      1.000000
    2   h       3.144901      1.000000
    2   h       1.048300      1.000000
 =======================================

 Library entry BR     S def2-QZVPP-JKFIT     selected for RI group  1
 Library entry BR     P def2-QZVPP-JKFIT     selected for RI group  1
 Library entry BR     D def2-QZVPP-JKFIT     selected for RI group  1
 Library entry BR     F def2-QZVPP-JKFIT     selected for RI group  1
 Library entry BR     G def2-QZVPP-JKFIT     selected for RI group  1
 Library entry BR     H def2-QZVPP-JKFIT     selected for RI group  1
 Basis set:    RI
 Basis size:   532
 Sphericals:   T
 =======================================
 Centre l       exponent    contractions
 =======================================

    1   s   18095.306651      0.145063
    1   s    8408.841805      0.057914
    1   s    4014.768514      0.412299
    1   s    1967.734255      0.482317

    1   s     989.106218      1.000000
    1   s     509.376962      1.000000
    1   s     268.450697      1.000000
    1   s     144.606194      1.000000
    1   s      79.512228      1.000000
    1   s      44.564896      1.000000
    1   s      25.422121      1.000000
    1   s      14.736716      1.000000
    1   s       8.666305      1.000000
    1   s       5.161222      1.000000
    1   s       3.107187      1.000000
    1   s       1.887394      1.000000
    1   s       1.154516      1.000000
    1   s       0.709780      1.000000
    1   s       0.437688      1.000000
    1   s       0.270175      1.000000

    1   p    3076.100366      0.165169
    1   p    1316.038916      0.368721

    1   p     577.112256      1.000000
    1   p     258.987909      1.000000
    1   p     118.734033      1.000000
    1   p      55.506313      1.000000
    1   p      26.407305      1.000000
    1   p      12.758945      1.000000
    1   p       6.246898      1.000000
    1   p       3.092313      1.000000
    1   p       1.544004      1.000000
    1   p       0.775727      1.000000
    1   p       0.391197      1.000000
    1   p       0.197526      1.000000

    1   d     826.570903      0.261853
    1   d     298.354501      0.965108

    1   d     133.246635      1.000000
    1   d      63.670862      1.000000
    1   d      29.183415      1.000000
    1   d      13.061102      1.000000
    1   d       6.429000      1.000000
    1   d       3.105967      1.000000
    1   d       1.519500      1.000000
    1   d       0.750743      1.000000
    1   d       0.373568      1.000000
    1   d       0.186686      1.000000
    1   d       0.093428      1.000000

    1   f     313.252570      0.226938
    1   f     120.080711      0.973909

    1   f      55.096696      1.000000
    1   f      27.041382      1.000000
    1   f      13.017646      1.000000
    1   f       6.280999      1.000000
    1   f       2.880246      1.000000
    1   f       1.385371      1.000000
    1   f       0.737292      1.000000
    1   f       0.364923      1.000000

    1   g     112.137412      0.197560
    1   g      42.959550      0.980291

    1   g      18.858800      1.000000
    1   g       8.579437      1.000000
    1   g       3.927493      1.000000
    1   g       1.624022      1.000000
    1   g       0.761551      1.000000

    1   h       9.434703      1.000000
    1   h       3.144901      1.000000
    1   h       1.048300      1.000000

    2   s   18095.306651      0.145063
    2   s    8408.841805      0.057914
    2   s    4014.768514      0.412299
    2   s    1967.734255      0.482317

    2   s     989.106218      1.000000
    2   s     509.376962      1.000000
    2   s     268.450697      1.000000
    2   s     144.606194      1.000000
    2   s      79.512228      1.000000
    2   s      44.564896      1.000000
    2   s      25.422121      1.000000
    2   s      14.736716      1.000000
    2   s       8.666305      1.000000
    2   s       5.161222      1.000000
    2   s       3.107187      1.000000
    2   s       1.887394      1.000000
    2   s       1.154516      1.000000
    2   s       0.709780      1.000000
    2   s       0.437688      1.000000
    2   s       0.270175      1.000000

    2   p    3076.100366      0.165169
    2   p    1316.038916      0.368721

    2   p     577.112256      1.000000
    2   p     258.987909      1.000000
    2   p     118.734033      1.000000
    2   p      55.506313      1.000000
    2   p      26.407305      1.000000
    2   p      12.758945      1.000000
    2   p       6.246898      1.000000
    2   p       3.092313      1.000000
    2   p       1.544004      1.000000
    2   p       0.775727      1.000000
    2   p       0.391197      1.000000
    2   p       0.197526      1.000000

    2   d     826.570903      0.261853
    2   d     298.354501      0.965108

    2   d     133.246635      1.000000
    2   d      63.670862      1.000000
    2   d      29.183415      1.000000
    2   d      13.061102      1.000000
    2   d       6.429000      1.000000
    2   d       3.105967      1.000000
    2   d       1.519500      1.000000
    2   d       0.750743      1.000000
    2   d       0.373568      1.000000
    2   d       0.186686      1.000000
    2   d       0.093428      1.000000

    2   f     313.252570      0.226938
    2   f     120.080711      0.973909

    2   f      55.096696      1.000000
    2   f      27.041382      1.000000
    2   f      13.017646      1.000000
    2   f       6.280999      1.000000
    2   f       2.880246      1.000000
    2   f       1.385371      1.000000
    2   f       0.737292      1.000000
    2   f       0.364923      1.000000

    2   g     112.137412      0.197560
    2   g      42.959550      0.980291

    2   g      18.858800      1.000000
    2   g       8.579437      1.000000
    2   g       3.927493      1.000000
    2   g       1.624022      1.000000
    2   g       0.761551      1.000000

    2   h       9.434703      1.000000
    2   h       3.144901      1.000000
    2   h       1.048300      1.000000
 =======================================


 PROGRAM * MP2 (Closed-shell)     Authors: C. Hampel, H.-J. Werner, 1991, M. Deegan, P.J. Knowles, 1992

                                   MP2-F12 implementation by H.-J. Werner, 2007

                   Density fitting integral evaluation by F.R. Manby, 2003,2007, G. Knizia, 2010



 Convergence thresholds:  THRVAR = 1.00D-08  THRDEN = 1.00D-09

 Number of core orbitals:          18 (  18 )
 Number of closed-shell orbitals:   7 (   7 )
 Number of external orbitals:      71 (  71 )

 Molecular orbitals read from record     2100.2  Type=RHF/CANONICAL  

 MP2-F12 correlation treatment (H.-J. Werner, 2006)
 ==================================================

 Some Fock operators are calculated for F12-singles only.

 AO(A)-basis ORBITAL           loaded. Number of functions:      96
 RI(R)-basis RI                loaded. Number of functions:     532
 Basis set JK loaded. Number of basis functions: 532 
 DF-basis JK                   loaded. Number of functions:     532

 Screening thresholds:   THRAO=  1.00D-10  THRMO=  1.00D-09  THRPROD=  1.00D-09
                         THRSW=  1.00D-05  THROV=  1.00D-12  THRAOF12= 1.00D-08

 CPU time for Fock operators                      0.86 sec

 Construction of ABS:
 Smallest eigenvalue of S          2.26E-06  (threshold= 1.00E-09)
 Ratio eigmin/eigmax               2.98E-07  (threshold= 1.00E-09)
 Smallest eigenvalue of S kept     2.26E-06  (threshold= 2.26E-06, 0 functions deleted, 532 kept)

 Construction of CABS:
 Smallest eigenvalue of S          1.80E-09  (threshold= 1.00E-09)
 Ratio eigmin/eigmax               1.80E-09  (threshold= 1.00E-09)
 Smallest eigenvalue of S kept     1.80E-09  (threshold= 1.80E-09, 0 functions deleted, 532 kept)

 CPU time for CABS singles                        0.07 sec

 CABS-singles contribution of  -0.00739886 patched into reference energy.
 New reference energy        -831.00815964

 Leaving lmp2-f12 by request (CABS_SINGLES < 0) after calculation of singles.


  Reference energy                   -831.000760778498
  F12 singles correction               -0.007398864390

 F12 singles corrections added to reference energy

  New reference energy               -831.008159642888

  F12 singlet correction                0.000000000000
  F12 triplet correction                0.000000000000
  F12 total correction                  0.000000000000
  MP2-F12 singlet pair energy           0.000000000000
  MP2-F12 triplet pair energy           0.000000000000
  MP2-F12 correlation energy            0.000000000000

 !MP2-F12 total energy               -831.008159642888


 **********************************************************************************************************************************
 DATASETS  * FILE   NREC   LENGTH (MB)   RECORD NAMES
              1      19       29.07       500      610      700      900      950      970     1000      129      960     1100   
                                          VAR    BASINP    GEOM    SYMINP    ZMAT    AOBASIS   BASIS     P2S    ABASIS      S 
                                         1400     1410     1420     1200     1210     1080     1700     1600     1650   
                                           T        V       ECP      H0       H01     AOSYM    OPER      SMH    MOLCAS    

              2       5        0.63       700     1000      520     2100     7360   
                                         GEOM     BASIS   MCVARS     RHF    F12ABS    

 PROGRAMS   *        TOTAL   DF-CABS     DF-HF       INT
 CPU TIMES  *         1.97      1.09      0.43      0.30
 REAL TIME  *         3.38 SEC
 DISK USED  *        30.26 MB (local),      484.09 MB (total)
 SF USED    *       252.17 MB
 GA USED    *         3.05 MB       (max)       0.00 MB       (current)
 **********************************************************************************************************************************

 DF-CABS/cc-pVDZ-PP-F12 energy=   -831.008159642888

         DF-CABS           DF-HF
   -831.00815964   -831.00076078
 **********************************************************************************************************************************
 Molpro calculation terminated
