
 Working directory              : /scratch/emmanous/3821792.pbs01/molpro.biZN9aaq2c/
 Global scratch directory       : /scratch/emmanous/3821792.pbs01/molpro.biZN9aaq2c/
 Wavefunction directory         : /home/emmanous/wfu/
 Main file repository           : /scratch/emmanous/3821792.pbs01/molpro.biZN9aaq2c/

 id        : wis

 Nodes     nprocs
 cff051      16
 GA implementation: MPI file
 GA implementation (serial work in mppx): MPI file

 Using DEFAULT tuning parameter for ncache   :   16384
 Using DEFAULT tuning parameter for mflopdgm :   10000
 Using DEFAULT tuning parameter for mflopdgv :    4000
 Using DEFAULT tuning parameter for mflopmxm :    5000
 Using DEFAULT tuning parameter for mflopmxv :    4000
 Using DEFAULT tuning parameter for mindgm   :       1
 Using DEFAULT tuning parameter for mindgc   :       4
 Using DEFAULT tuning parameter for mindgf   :    5000
 Using DEFAULT tuning parameter for mindgl   :       4
 Using DEFAULT tuning parameter for mindgr   :       1
 Using DEFAULT tuning parameter for mindgv   :      20
 Using DEFAULT tuning parameter for mincuda  :     500
 Using DEFAULT tuning parameter for mxmblk   :      64
 Using DEFAULT tuning parameter for mxmbln   :      64
 Using DEFAULT tuning parameter for nroll    :       2
 Using custom tuning parameter for ngpus     :       0
 Using customized tuning parameters: mindgm=1; mindgv=20; mindgc=4; mindgr=1; noblas=0; minvec=7

 Fortran compiler: integer size=8, double size=8, logical size=8
 default implementation of scratch files=sf  


 Variables initialized (1025), CPU time= 0.00 sec
 gprint,basis
 gthresh,energy=1d-9
 ANGSTROM
 geomtyp=xyz
 charge=0
 multiplicity=1
 nosym
 geom={
 I ,0.0000 ,0.0000 ,0.0000
 I ,0.0000 ,0.0000 ,2.6655
 }
 
 basis={
 default,cc-pVQZ-PP-F12
 set,df
 default,cc-pVQZ-PP-F12/MP2Fit
 set,jk
 default,cc-pVQZ-PP-F12/JKFIT
 set,ri
 default,def2-QZVPP/JKFIT
 }
 {df-hf,df_basis=jk
 wf,,,$multiplicity-1
 print,orbitals
 maxit,300}
 {df-cabs,gem_beta=1.0,df_basis=df,df_basis_exch=jk,ri_basis=ri,thrcabs=1d-9,thrcabs_rel=1d-9;explicit,ignore_bad_singl=1}
 Commands initialized (840), CPU time= 0.01 sec, 684 directives.
 Default parameters read. Elapsed time= 0.08 sec

 Using DEFAULT tuning parameter for mpplat   :       3
 Using DEFAULT tuning parameter for mppspeed :    1600
 Checking input...
 Passed
1


                                         ***  PROGRAM SYSTEM MOLPRO  ***
                                       Copyright, TTI GmbH Stuttgart, 2015
                                    Version 2022.3 linked Wed Nov 30 13:40:34 2022


 **********************************************************************************************************************************
 LABEL *                                                                                 
  64 bit mpp version                                                                     DATE: 13-Jul-23          TIME: 11:31:25  
 **********************************************************************************************************************************

 SHA1:             e31ec9a5ea85254ab76f59d122cbdd51c71cf98b
 **********************************************************************************************************************************

 Memory per process:      1000 MW
 Total memory per node:  16000 MW

 GA preallocation disabled
 GA check disabled

 Variable memory set to 1000.0 MW



 THRESHOLDS:

 ZERO    =  1.00D-12  ONEINT  =  1.00D-12  TWOINT  =  1.00D-11  PREFAC  =  1.00D-14  XXXXXX  =  1.00D-09  EORDER  =  1.00D-04
 ENERGY  =  1.00D-09  ETEST   =  0.00D+00  EDENS   =  0.00D+00  THRDEDEF=  1.00D-06  GRADIENT=  1.00D-05  STEP    =  1.00D-03
 ORBITAL =  1.00D-05  CIVEC   =  1.00D-05  COEFF   =  1.00D-04  PRINTCI =  5.00D-02  PUNCHCI =  9.90D+01  OPTGRAD =  3.00D-04
 OPTENERG=  1.00D-06  OPTSTEP =  3.00D-04  THRGRAD =  1.00D-10  COMPRESS=  1.00D-11  VARMIN  =  1.00D-07  VARMAX  =  1.00D-03
 THRDOUB =  0.00D+00  THRDIV  =  1.00D-05  THRRED  =  1.00D-07  THRPSP  =  1.00D+00  THRDC   =  1.00D-10  THRCS   =  1.00D-10
 THRNRM  =  1.00D-08  THREQ   =  0.00D+00  THRDE   =  1.00D+00  THRREF  =  1.00D-05  SPARFAC =  1.00D+00  THRDLP  =  1.00D-07
 THRDIA  =  1.00D-10  THRDLS  =  1.00D-07  THRGPS  =  0.00D+00  THRKEX  =  0.00D+00  THRDIS  =  2.00D-01  THRVAR  =  1.00D-10
 THRLOC  =  1.00D-06  THRGAP  =  1.00D-06  THRLOCT = -1.00D+00  THRGAPT = -1.00D+00  THRORB  =  1.00D-06  THRMLTP =  0.00D+00
 THRCPQCI=  1.00D-10  KEXTA   =  0.00D+00  THRCOARS=  0.00D+00  SYMTOL  =  1.00D-06  GRADTOL =  1.00D-06  THROVL  =  1.00D-08
 THRORTH =  1.00D-08  THRDLOVL= -1.00D+00  GRID    =  1.00D-06  GRIDMAX =  1.00D-03  DTMAX   =  0.00D+00  THROCCDE=  1.00D-01
 THROCCDE=  1.00D-01  THRPRINT=  2.50D-01

 SETTING GEOMTYP        =    XYZ
 SETTING CHARGE         =      0.0000000D+00                                  
 SETTING MULTIPLICITY   =         1.00000000                                  
 ZSYMEL=NOSYM
 ZUNIT=ANG

 SETTING BASIS          =    CC-PVQZ-PP-F12


 Recomputing integrals since basis changed


 Using spherical harmonics

 Library entry I    ECP ECP28MDF                 selected for group  1
 Library entry I      S cc-pVQZ-PP-F12       selected for orbital group  1
 Library entry I      P cc-pVQZ-PP-F12       selected for orbital group  1
 Library entry I      D cc-pVQZ-PP-F12       selected for orbital group  1
 Library entry I      F cc-pVQZ-PP-F12       selected for orbital group  1
 Library entry I      G cc-pVQZ-PP-F12       selected for orbital group  1


 PROGRAM * SEWARD (Integral evaluation for generally contracted gaussian basis sets)     Author: Roland Lindh, 1990

 Geometry written to block  1 of record 700


 Point group  C1  



 ATOMIC COORDINATES

 NR  ATOM    CHARGE       X              Y              Z

   1  I      25.00    0.000000000    0.000000000    0.000000000
   2  I      25.00    0.000000000    0.000000000    5.037064985

 Bond lengths in Bohr (Angstrom)

 1-2  5.037064985
     ( 2.665500000)


          I   CORE POTENTIAL

          g POTENTIAL

 POWERS             2
 EXPONENTIALS   1.000000    
 COEFFICIENTS   0.000000    

          s - g POTENTIAL

 POWERS             2              2              2
 EXPONENTIALS   40.03338       17.30058       8.851720    
 COEFFICIENTS   49.98965       281.0066       61.41674    

          p - g POTENTIAL

 POWERS             2              2              2              2
 EXPONENTIALS   15.72014       15.20822       8.294186       7.753949    
 COEFFICIENTS   67.41624       134.8077       14.56655       28.96842    

          d - g POTENTIAL

 POWERS             2              2              2              2
 EXPONENTIALS   13.81775       13.58780       6.947630       6.960099    
 COEFFICIENTS   35.53876       53.33976       9.716466       14.97750    

          f - g POTENTIAL

 POWERS             2              2              2              2
 EXPONENTIALS   18.52295       18.25104       7.557901       7.597404    
 COEFFICIENTS  -20.17662      -26.08808     -0.2204340     -0.2216460    


          I   SPIN-ORBIT POTENTIAL

          p POTENTIAL

 POWERS             2              2              2              2
 EXPONENTIALS   15.72014       15.20822       8.294186       7.753949    
 COEFFICIENTS  -134.8325       134.8077      -29.13310       28.96842    

          d POTENTIAL

 POWERS             2              2              2              2
 EXPONENTIALS   13.81775       13.58780       6.947630       6.960099    
 COEFFICIENTS  -35.53876       35.55984      -9.716466       9.985000    

          f POTENTIAL

 POWERS             2              2              2              2
 EXPONENTIALS   18.52295       18.25104       7.557901       7.597404    
 COEFFICIENTS   13.45108      -13.04404      0.1469560     -0.1108230    


          I   CORE POTENTIAL

          g POTENTIAL

 POWERS             2
 EXPONENTIALS   1.000000    
 COEFFICIENTS   0.000000    

          s - g POTENTIAL

 POWERS             2              2              2
 EXPONENTIALS   40.03338       17.30058       8.851720    
 COEFFICIENTS   49.98965       281.0066       61.41674    

          p - g POTENTIAL

 POWERS             2              2              2              2
 EXPONENTIALS   15.72014       15.20822       8.294186       7.753949    
 COEFFICIENTS   67.41624       134.8077       14.56655       28.96842    

          d - g POTENTIAL

 POWERS             2              2              2              2
 EXPONENTIALS   13.81775       13.58780       6.947630       6.960099    
 COEFFICIENTS   35.53876       53.33976       9.716466       14.97750    

          f - g POTENTIAL

 POWERS             2              2              2              2
 EXPONENTIALS   18.52295       18.25104       7.557901       7.597404    
 COEFFICIENTS  -20.17662      -26.08808     -0.2204340     -0.2216460    


          I   SPIN-ORBIT POTENTIAL

          p POTENTIAL

 POWERS             2              2              2              2
 EXPONENTIALS   15.72014       15.20822       8.294186       7.753949    
 COEFFICIENTS  -134.8325       134.8077      -29.13310       28.96842    

          d POTENTIAL

 POWERS             2              2              2              2
 EXPONENTIALS   13.81775       13.58780       6.947630       6.960099    
 COEFFICIENTS  -35.53876       35.55984      -9.716466       9.985000    

          f POTENTIAL

 POWERS             2              2              2              2
 EXPONENTIALS   18.52295       18.25104       7.557901       7.597404    
 COEFFICIENTS   13.45108      -13.04404      0.1469560     -0.1108230    


 BASIS DATA

   Nr Sym  Nuc  Type         Exponents   Contraction coefficients

    1.1 A     1  1s       42976.600000     0.000013   -0.000006    0.000000    0.000000    0.000000    0.000000
                                           0.000000
    2.1 A                  6439.010000     0.000097   -0.000047    0.000000    0.000000    0.000000    0.000000
                                           0.000000
    3.1 A                  1455.780000     0.000466   -0.000223    0.000000    0.000000    0.000000    0.000000
                                           0.000000
    4.1 A                   405.361000     0.001441   -0.000712    0.000000    0.000000    0.000000    0.000000
                                           0.000000
    5.1 A                   116.980000     0.002674   -0.001234    0.000000    0.000000    0.000000    0.000000
                                           0.000000
    6.1 A                    29.632600    -0.058121    0.024121    0.000000    0.000000    0.000000    0.000000
                                           0.000000
    7.1 A                    18.510000     0.345759   -0.155642    0.000000    0.000000    0.000000    0.000000
                                           0.000000
                             11.562000    -0.362272    0.188539    0.000000    0.000000    0.000000    0.000000
                                           0.000000
                              6.595070    -0.634674    0.274227    0.000000    0.000000    0.000000    0.000000
                                           0.000000
                              4.053400     0.223667   -0.124708    0.000000    0.000000    0.000000    0.000000
                                           0.000000
                              2.140900     0.783273   -0.473190    0.000000    0.000000    0.000000    0.000000
                                           0.000000
                              1.181640     0.452521   -0.463116    1.000000    0.000000    0.000000    0.000000
                                           0.000000
                              0.600372     0.053048    0.099724    0.000000    1.000000    0.000000    0.000000
                                           0.000000
                              0.319965    -0.000891    0.605016    0.000000    0.000000    1.000000    0.000000
                                           0.000000
                              0.158769     0.000960    0.517668    0.000000    0.000000    0.000000    1.000000
                                           0.000000
                              0.075451    -0.000025    0.107669    0.000000    0.000000    0.000000    0.000000
                                           1.000000
    8.1 A     1  1s           0.030500     1.000000
    9.1 A     1  2px        569.643000     0.000115
                            131.496000     0.000717
                             32.384300    -0.002027
                             20.225400     0.053436
                             11.238100    -0.192264
                              6.627940    -0.095215
                              3.647800     0.365808
                              1.988530     0.536431
                              1.063670     0.265008
                              0.524303     0.036039
                              0.255382     0.001342
                              0.119755     0.001052
                              0.054199     0.000061
   10.1 A     1  2py        569.643000     0.000115
                            131.496000     0.000717
                             32.384300    -0.002027
                             20.225400     0.053436
                             11.238100    -0.192264
                              6.627940    -0.095215
                              3.647800     0.365808
                              1.988530     0.536431
                              1.063670     0.265008
                              0.524303     0.036039
                              0.255382     0.001342
                              0.119755     0.001052
                              0.054199     0.000061
   11.1 A     1  2pz        569.643000     0.000115
                            131.496000     0.000717
                             32.384300    -0.002027
                             20.225400     0.053436
                             11.238100    -0.192264
                              6.627940    -0.095215
                              3.647800     0.365808
                              1.988530     0.536431
                              1.063670     0.265008
                              0.524303     0.036039
                              0.255382     0.001342
                              0.119755     0.001052
                              0.054199     0.000061
   12.1 A     1  2px        569.643000    -0.000043
                            131.496000    -0.000260
                             32.384300     0.000344
                             20.225400    -0.018231
                             11.238100     0.074014
                              6.627940     0.022016
                              3.647800    -0.147873
                              1.988530    -0.241166
                              1.063670    -0.115482
                              0.524303     0.239493
                              0.255382     0.476631
                              0.119755     0.383021
                              0.054199     0.100705
   13.1 A     1  2py        569.643000    -0.000043
                            131.496000    -0.000260
                             32.384300     0.000344
                             20.225400    -0.018231
                             11.238100     0.074014
                              6.627940     0.022016
                              3.647800    -0.147873
                              1.988530    -0.241166
                              1.063670    -0.115482
                              0.524303     0.239493
                              0.255382     0.476631
                              0.119755     0.383021
                              0.054199     0.100705
   14.1 A     1  2pz        569.643000    -0.000043
                            131.496000    -0.000260
                             32.384300     0.000344
                             20.225400    -0.018231
                             11.238100     0.074014
                              6.627940     0.022016
                              3.647800    -0.147873
                              1.988530    -0.241166
                              1.063670    -0.115482
                              0.524303     0.239493
                              0.255382     0.476631
                              0.119755     0.383021
                              0.054199     0.100705
   15.1 A     1  2px        569.643000     0.000000
                            131.496000     0.000000
                             32.384300     0.000000
                             20.225400     0.000000
                             11.238100     0.000000
                              6.627940     0.000000
                              3.647800     0.000000
                              1.988530     0.000000
                              1.063670     1.000000
                              0.524303     0.000000
                              0.255382     0.000000
                              0.119755     0.000000
                              0.054199     0.000000
   16.1 A     1  2py        569.643000     0.000000
                            131.496000     0.000000
                             32.384300     0.000000
                             20.225400     0.000000
                             11.238100     0.000000
                              6.627940     0.000000
                              3.647800     0.000000
                              1.988530     0.000000
                              1.063670     1.000000
                              0.524303     0.000000
                              0.255382     0.000000
                              0.119755     0.000000
                              0.054199     0.000000
   17.1 A     1  2pz        569.643000     0.000000
                            131.496000     0.000000
                             32.384300     0.000000
                             20.225400     0.000000
                             11.238100     0.000000
                              6.627940     0.000000
                              3.647800     0.000000
                              1.988530     0.000000
                              1.063670     1.000000
                              0.524303     0.000000
                              0.255382     0.000000
                              0.119755     0.000000
                              0.054199     0.000000
   18.1 A     1  2px        569.643000     0.000000
                            131.496000     0.000000
                             32.384300     0.000000
                             20.225400     0.000000
                             11.238100     0.000000
                              6.627940     0.000000
                              3.647800     0.000000
                              1.988530     0.000000
                              1.063670     0.000000
                              0.524303     1.000000
                              0.255382     0.000000
                              0.119755     0.000000
                              0.054199     0.000000
   19.1 A     1  2py        569.643000     0.000000
                            131.496000     0.000000
                             32.384300     0.000000
                             20.225400     0.000000
                             11.238100     0.000000
                              6.627940     0.000000
                              3.647800     0.000000
                              1.988530     0.000000
                              1.063670     0.000000
                              0.524303     1.000000
                              0.255382     0.000000
                              0.119755     0.000000
                              0.054199     0.000000
   20.1 A     1  2pz        569.643000     0.000000
                            131.496000     0.000000
                             32.384300     0.000000
                             20.225400     0.000000
                             11.238100     0.000000
                              6.627940     0.000000
                              3.647800     0.000000
                              1.988530     0.000000
                              1.063670     0.000000
                              0.524303     1.000000
                              0.255382     0.000000
                              0.119755     0.000000
                              0.054199     0.000000
   21.1 A     1  2px        569.643000     0.000000
                            131.496000     0.000000
                             32.384300     0.000000
                             20.225400     0.000000
                             11.238100     0.000000
                              6.627940     0.000000
                              3.647800     0.000000
                              1.988530     0.000000
                              1.063670     0.000000
                              0.524303     0.000000
                              0.255382     1.000000
                              0.119755     0.000000
                              0.054199     0.000000
   22.1 A     1  2py        569.643000     0.000000
                            131.496000     0.000000
                             32.384300     0.000000
                             20.225400     0.000000
                             11.238100     0.000000
                              6.627940     0.000000
                              3.647800     0.000000
                              1.988530     0.000000
                              1.063670     0.000000
                              0.524303     0.000000
                              0.255382     1.000000
                              0.119755     0.000000
                              0.054199     0.000000
   23.1 A     1  2pz        569.643000     0.000000
                            131.496000     0.000000
                             32.384300     0.000000
                             20.225400     0.000000
                             11.238100     0.000000
                              6.627940     0.000000
                              3.647800     0.000000
                              1.988530     0.000000
                              1.063670     0.000000
                              0.524303     0.000000
                              0.255382     1.000000
                              0.119755     0.000000
                              0.054199     0.000000
   24.1 A     1  2px        569.643000     0.000000
                            131.496000     0.000000
                             32.384300     0.000000
                             20.225400     0.000000
                             11.238100     0.000000
                              6.627940     0.000000
                              3.647800     0.000000
                              1.988530     0.000000
                              1.063670     0.000000
                              0.524303     0.000000
                              0.255382     0.000000
                              0.119755     1.000000
                              0.054199     0.000000
   25.1 A     1  2py        569.643000     0.000000
                            131.496000     0.000000
                             32.384300     0.000000
                             20.225400     0.000000
                             11.238100     0.000000
                              6.627940     0.000000
                              3.647800     0.000000
                              1.988530     0.000000
                              1.063670     0.000000
                              0.524303     0.000000
                              0.255382     0.000000
                              0.119755     1.000000
                              0.054199     0.000000
   26.1 A     1  2pz        569.643000     0.000000
                            131.496000     0.000000
                             32.384300     0.000000
                             20.225400     0.000000
                             11.238100     0.000000
                              6.627940     0.000000
                              3.647800     0.000000
                              1.988530     0.000000
                              1.063670     0.000000
                              0.524303     0.000000
                              0.255382     0.000000
                              0.119755     1.000000
                              0.054199     0.000000
   27.1 A     1  2px        569.643000     0.000000
                            131.496000     0.000000
                             32.384300     0.000000
                             20.225400     0.000000
                             11.238100     0.000000
                              6.627940     0.000000
                              3.647800     0.000000
                              1.988530     0.000000
                              1.063670     0.000000
                              0.524303     0.000000
                              0.255382     0.000000
                              0.119755     0.000000
                              0.054199     1.000000
   28.1 A     1  2py        569.643000     0.000000
                            131.496000     0.000000
                             32.384300     0.000000
                             20.225400     0.000000
                             11.238100     0.000000
                              6.627940     0.000000
                              3.647800     0.000000
                              1.988530     0.000000
                              1.063670     0.000000
                              0.524303     0.000000
                              0.255382     0.000000
                              0.119755     0.000000
                              0.054199     1.000000
   29.1 A     1  2pz        569.643000     0.000000
                            131.496000     0.000000
                             32.384300     0.000000
                             20.225400     0.000000
                             11.238100     0.000000
                              6.627940     0.000000
                              3.647800     0.000000
                              1.988530     0.000000
                              1.063670     0.000000
                              0.524303     0.000000
                              0.255382     0.000000
                              0.119755     0.000000
                              0.054199     1.000000
   30.1 A     1  2px          0.023100     1.000000
   31.1 A     1  2py          0.023100     1.000000
   32.1 A     1  2pz          0.023100     1.000000
   33.1 A     1  3d0        578.808000     0.000026
                            175.853000     0.000234
                             68.829200     0.001177
                             28.735400     0.005462
                             12.316600    -0.027530
                              7.611430     0.020976
                              4.704520     0.176842
                              2.794650     0.319479
                              1.616440     0.338731
                              0.914211     0.217966
                              0.504730     0.078104
                              0.276280     0.014250
                              0.139200     0.001803
   34.1 A     1  3d2-       578.808000     0.000026
                            175.853000     0.000234
                             68.829200     0.001177
                             28.735400     0.005462
                             12.316600    -0.027530
                              7.611430     0.020976
                              4.704520     0.176842
                              2.794650     0.319479
                              1.616440     0.338731
                              0.914211     0.217966
                              0.504730     0.078104
                              0.276280     0.014250
                              0.139200     0.001803
   35.1 A     1  3d1+       578.808000     0.000026
                            175.853000     0.000234
                             68.829200     0.001177
                             28.735400     0.005462
                             12.316600    -0.027530
                              7.611430     0.020976
                              4.704520     0.176842
                              2.794650     0.319479
                              1.616440     0.338731
                              0.914211     0.217966
                              0.504730     0.078104
                              0.276280     0.014250
                              0.139200     0.001803
   36.1 A     1  3d2+       578.808000     0.000026
                            175.853000     0.000234
                             68.829200     0.001177
                             28.735400     0.005462
                             12.316600    -0.027530
                              7.611430     0.020976
                              4.704520     0.176842
                              2.794650     0.319479
                              1.616440     0.338731
                              0.914211     0.217966
                              0.504730     0.078104
                              0.276280     0.014250
                              0.139200     0.001803
   37.1 A     1  3d1-       578.808000     0.000026
                            175.853000     0.000234
                             68.829200     0.001177
                             28.735400     0.005462
                             12.316600    -0.027530
                              7.611430     0.020976
                              4.704520     0.176842
                              2.794650     0.319479
                              1.616440     0.338731
                              0.914211     0.217966
                              0.504730     0.078104
                              0.276280     0.014250
                              0.139200     0.001803
   38.1 A     1  3d0          1.957500     1.000000
   39.1 A     1  3d2-         1.957500     1.000000
   40.1 A     1  3d1+         1.957500     1.000000
   41.1 A     1  3d2+         1.957500     1.000000
   42.1 A     1  3d1-         1.957500     1.000000
   43.1 A     1  3d0          0.514100     1.000000
   44.1 A     1  3d2-         0.514100     1.000000
   45.1 A     1  3d1+         0.514100     1.000000
   46.1 A     1  3d2+         0.514100     1.000000
   47.1 A     1  3d1-         0.514100     1.000000
   48.1 A     1  3d0          0.296900     1.000000
   49.1 A     1  3d2-         0.296900     1.000000
   50.1 A     1  3d1+         0.296900     1.000000
   51.1 A     1  3d2+         0.296900     1.000000
   52.1 A     1  3d1-         0.296900     1.000000
   53.1 A     1  3d0          0.171500     1.000000
   54.1 A     1  3d2-         0.171500     1.000000
   55.1 A     1  3d1+         0.171500     1.000000
   56.1 A     1  3d2+         0.171500     1.000000
   57.1 A     1  3d1-         0.171500     1.000000
   58.1 A     1  3d0          0.099000     1.000000
   59.1 A     1  3d2-         0.099000     1.000000
   60.1 A     1  3d1+         0.099000     1.000000
   61.1 A     1  3d2+         0.099000     1.000000
   62.1 A     1  3d1-         0.099000     1.000000
   63.1 A     1  4f1+         9.259200     1.000000
   64.1 A     1  4f1-         9.259200     1.000000
   65.1 A     1  4f0          9.259200     1.000000
   66.1 A     1  4f3+         9.259200     1.000000
   67.1 A     1  4f2-         9.259200     1.000000
   68.1 A     1  4f3-         9.259200     1.000000
   69.1 A     1  4f2+         9.259200     1.000000
   70.1 A     1  4f1+         1.779600     1.000000
   71.1 A     1  4f1-         1.779600     1.000000
   72.1 A     1  4f0          1.779600     1.000000
   73.1 A     1  4f3+         1.779600     1.000000
   74.1 A     1  4f2-         1.779600     1.000000
   75.1 A     1  4f3-         1.779600     1.000000
   76.1 A     1  4f2+         1.779600     1.000000
   77.1 A     1  4f1+         0.639500     1.000000
   78.1 A     1  4f1-         0.639500     1.000000
   79.1 A     1  4f0          0.639500     1.000000
   80.1 A     1  4f3+         0.639500     1.000000
   81.1 A     1  4f2-         0.639500     1.000000
   82.1 A     1  4f3-         0.639500     1.000000
   83.1 A     1  4f2+         0.639500     1.000000
   84.1 A     1  4f1+         0.229800     1.000000
   85.1 A     1  4f1-         0.229800     1.000000
   86.1 A     1  4f0          0.229800     1.000000
   87.1 A     1  4f3+         0.229800     1.000000
   88.1 A     1  4f2-         0.229800     1.000000
   89.1 A     1  4f3-         0.229800     1.000000
   90.1 A     1  4f2+         0.229800     1.000000
   91.1 A     1  5g0          0.645800     1.000000
   92.1 A     1  5g2-         0.645800     1.000000
   93.1 A     1  5g1+         0.645800     1.000000
   94.1 A     1  5g4+         0.645800     1.000000
   95.1 A     1  5g1-         0.645800     1.000000
   96.1 A     1  5g2+         0.645800     1.000000
   97.1 A     1  5g4-         0.645800     1.000000
   98.1 A     1  5g3+         0.645800     1.000000
   99.1 A     1  5g3-         0.645800     1.000000
  100.1 A     1  5g0          0.250300     1.000000
  101.1 A     1  5g2-         0.250300     1.000000
  102.1 A     1  5g1+         0.250300     1.000000
  103.1 A     1  5g4+         0.250300     1.000000
  104.1 A     1  5g1-         0.250300     1.000000
  105.1 A     1  5g2+         0.250300     1.000000
  106.1 A     1  5g4-         0.250300     1.000000
  107.1 A     1  5g3+         0.250300     1.000000
  108.1 A     1  5g3-         0.250300     1.000000
  109.1 A     2  1s       42976.600000     0.000013   -0.000006    0.000000    0.000000    0.000000    0.000000
                                           0.000000
  110.1 A                  6439.010000     0.000097   -0.000047    0.000000    0.000000    0.000000    0.000000
                                           0.000000
  111.1 A                  1455.780000     0.000466   -0.000223    0.000000    0.000000    0.000000    0.000000
                                           0.000000
  112.1 A                   405.361000     0.001441   -0.000712    0.000000    0.000000    0.000000    0.000000
                                           0.000000
  113.1 A                   116.980000     0.002674   -0.001234    0.000000    0.000000    0.000000    0.000000
                                           0.000000
  114.1 A                    29.632600    -0.058121    0.024121    0.000000    0.000000    0.000000    0.000000
                                           0.000000
  115.1 A                    18.510000     0.345759   -0.155642    0.000000    0.000000    0.000000    0.000000
                                           0.000000
                             11.562000    -0.362272    0.188539    0.000000    0.000000    0.000000    0.000000
                                           0.000000
                              6.595070    -0.634674    0.274227    0.000000    0.000000    0.000000    0.000000
                                           0.000000
                              4.053400     0.223667   -0.124708    0.000000    0.000000    0.000000    0.000000
                                           0.000000
                              2.140900     0.783273   -0.473190    0.000000    0.000000    0.000000    0.000000
                                           0.000000
                              1.181640     0.452521   -0.463116    1.000000    0.000000    0.000000    0.000000
                                           0.000000
                              0.600372     0.053048    0.099724    0.000000    1.000000    0.000000    0.000000
                                           0.000000
                              0.319965    -0.000891    0.605016    0.000000    0.000000    1.000000    0.000000
                                           0.000000
                              0.158769     0.000960    0.517668    0.000000    0.000000    0.000000    1.000000
                                           0.000000
                              0.075451    -0.000025    0.107669    0.000000    0.000000    0.000000    0.000000
                                           1.000000
  116.1 A     2  1s           0.030500     1.000000
  117.1 A     2  2px        569.643000     0.000115
                            131.496000     0.000717
                             32.384300    -0.002027
                             20.225400     0.053436
                             11.238100    -0.192264
                              6.627940    -0.095215
                              3.647800     0.365808
                              1.988530     0.536431
                              1.063670     0.265008
                              0.524303     0.036039
                              0.255382     0.001342
                              0.119755     0.001052
                              0.054199     0.000061
  118.1 A     2  2py        569.643000     0.000115
                            131.496000     0.000717
                             32.384300    -0.002027
                             20.225400     0.053436
                             11.238100    -0.192264
                              6.627940    -0.095215
                              3.647800     0.365808
                              1.988530     0.536431
                              1.063670     0.265008
                              0.524303     0.036039
                              0.255382     0.001342
                              0.119755     0.001052
                              0.054199     0.000061
  119.1 A     2  2pz        569.643000     0.000115
                            131.496000     0.000717
                             32.384300    -0.002027
                             20.225400     0.053436
                             11.238100    -0.192264
                              6.627940    -0.095215
                              3.647800     0.365808
                              1.988530     0.536431
                              1.063670     0.265008
                              0.524303     0.036039
                              0.255382     0.001342
                              0.119755     0.001052
                              0.054199     0.000061
  120.1 A     2  2px        569.643000    -0.000043
                            131.496000    -0.000260
                             32.384300     0.000344
                             20.225400    -0.018231
                             11.238100     0.074014
                              6.627940     0.022016
                              3.647800    -0.147873
                              1.988530    -0.241166
                              1.063670    -0.115482
                              0.524303     0.239493
                              0.255382     0.476631
                              0.119755     0.383021
                              0.054199     0.100705
  121.1 A     2  2py        569.643000    -0.000043
                            131.496000    -0.000260
                             32.384300     0.000344
                             20.225400    -0.018231
                             11.238100     0.074014
                              6.627940     0.022016
                              3.647800    -0.147873
                              1.988530    -0.241166
                              1.063670    -0.115482
                              0.524303     0.239493
                              0.255382     0.476631
                              0.119755     0.383021
                              0.054199     0.100705
  122.1 A     2  2pz        569.643000    -0.000043
                            131.496000    -0.000260
                             32.384300     0.000344
                             20.225400    -0.018231
                             11.238100     0.074014
                              6.627940     0.022016
                              3.647800    -0.147873
                              1.988530    -0.241166
                              1.063670    -0.115482
                              0.524303     0.239493
                              0.255382     0.476631
                              0.119755     0.383021
                              0.054199     0.100705
  123.1 A     2  2px        569.643000     0.000000
                            131.496000     0.000000
                             32.384300     0.000000
                             20.225400     0.000000
                             11.238100     0.000000
                              6.627940     0.000000
                              3.647800     0.000000
                              1.988530     0.000000
                              1.063670     1.000000
                              0.524303     0.000000
                              0.255382     0.000000
                              0.119755     0.000000
                              0.054199     0.000000
  124.1 A     2  2py        569.643000     0.000000
                            131.496000     0.000000
                             32.384300     0.000000
                             20.225400     0.000000
                             11.238100     0.000000
                              6.627940     0.000000
                              3.647800     0.000000
                              1.988530     0.000000
                              1.063670     1.000000
                              0.524303     0.000000
                              0.255382     0.000000
                              0.119755     0.000000
                              0.054199     0.000000
  125.1 A     2  2pz        569.643000     0.000000
                            131.496000     0.000000
                             32.384300     0.000000
                             20.225400     0.000000
                             11.238100     0.000000
                              6.627940     0.000000
                              3.647800     0.000000
                              1.988530     0.000000
                              1.063670     1.000000
                              0.524303     0.000000
                              0.255382     0.000000
                              0.119755     0.000000
                              0.054199     0.000000
  126.1 A     2  2px        569.643000     0.000000
                            131.496000     0.000000
                             32.384300     0.000000
                             20.225400     0.000000
                             11.238100     0.000000
                              6.627940     0.000000
                              3.647800     0.000000
                              1.988530     0.000000
                              1.063670     0.000000
                              0.524303     1.000000
                              0.255382     0.000000
                              0.119755     0.000000
                              0.054199     0.000000
  127.1 A     2  2py        569.643000     0.000000
                            131.496000     0.000000
                             32.384300     0.000000
                             20.225400     0.000000
                             11.238100     0.000000
                              6.627940     0.000000
                              3.647800     0.000000
                              1.988530     0.000000
                              1.063670     0.000000
                              0.524303     1.000000
                              0.255382     0.000000
                              0.119755     0.000000
                              0.054199     0.000000
  128.1 A     2  2pz        569.643000     0.000000
                            131.496000     0.000000
                             32.384300     0.000000
                             20.225400     0.000000
                             11.238100     0.000000
                              6.627940     0.000000
                              3.647800     0.000000
                              1.988530     0.000000
                              1.063670     0.000000
                              0.524303     1.000000
                              0.255382     0.000000
                              0.119755     0.000000
                              0.054199     0.000000
  129.1 A     2  2px        569.643000     0.000000
                            131.496000     0.000000
                             32.384300     0.000000
                             20.225400     0.000000
                             11.238100     0.000000
                              6.627940     0.000000
                              3.647800     0.000000
                              1.988530     0.000000
                              1.063670     0.000000
                              0.524303     0.000000
                              0.255382     1.000000
                              0.119755     0.000000
                              0.054199     0.000000
  130.1 A     2  2py        569.643000     0.000000
                            131.496000     0.000000
                             32.384300     0.000000
                             20.225400     0.000000
                             11.238100     0.000000
                              6.627940     0.000000
                              3.647800     0.000000
                              1.988530     0.000000
                              1.063670     0.000000
                              0.524303     0.000000
                              0.255382     1.000000
                              0.119755     0.000000
                              0.054199     0.000000
  131.1 A     2  2pz        569.643000     0.000000
                            131.496000     0.000000
                             32.384300     0.000000
                             20.225400     0.000000
                             11.238100     0.000000
                              6.627940     0.000000
                              3.647800     0.000000
                              1.988530     0.000000
                              1.063670     0.000000
                              0.524303     0.000000
                              0.255382     1.000000
                              0.119755     0.000000
                              0.054199     0.000000
  132.1 A     2  2px        569.643000     0.000000
                            131.496000     0.000000
                             32.384300     0.000000
                             20.225400     0.000000
                             11.238100     0.000000
                              6.627940     0.000000
                              3.647800     0.000000
                              1.988530     0.000000
                              1.063670     0.000000
                              0.524303     0.000000
                              0.255382     0.000000
                              0.119755     1.000000
                              0.054199     0.000000
  133.1 A     2  2py        569.643000     0.000000
                            131.496000     0.000000
                             32.384300     0.000000
                             20.225400     0.000000
                             11.238100     0.000000
                              6.627940     0.000000
                              3.647800     0.000000
                              1.988530     0.000000
                              1.063670     0.000000
                              0.524303     0.000000
                              0.255382     0.000000
                              0.119755     1.000000
                              0.054199     0.000000
  134.1 A     2  2pz        569.643000     0.000000
                            131.496000     0.000000
                             32.384300     0.000000
                             20.225400     0.000000
                             11.238100     0.000000
                              6.627940     0.000000
                              3.647800     0.000000
                              1.988530     0.000000
                              1.063670     0.000000
                              0.524303     0.000000
                              0.255382     0.000000
                              0.119755     1.000000
                              0.054199     0.000000
  135.1 A     2  2px        569.643000     0.000000
                            131.496000     0.000000
                             32.384300     0.000000
                             20.225400     0.000000
                             11.238100     0.000000
                              6.627940     0.000000
                              3.647800     0.000000
                              1.988530     0.000000
                              1.063670     0.000000
                              0.524303     0.000000
                              0.255382     0.000000
                              0.119755     0.000000
                              0.054199     1.000000
  136.1 A     2  2py        569.643000     0.000000
                            131.496000     0.000000
                             32.384300     0.000000
                             20.225400     0.000000
                             11.238100     0.000000
                              6.627940     0.000000
                              3.647800     0.000000
                              1.988530     0.000000
                              1.063670     0.000000
                              0.524303     0.000000
                              0.255382     0.000000
                              0.119755     0.000000
                              0.054199     1.000000
  137.1 A     2  2pz        569.643000     0.000000
                            131.496000     0.000000
                             32.384300     0.000000
                             20.225400     0.000000
                             11.238100     0.000000
                              6.627940     0.000000
                              3.647800     0.000000
                              1.988530     0.000000
                              1.063670     0.000000
                              0.524303     0.000000
                              0.255382     0.000000
                              0.119755     0.000000
                              0.054199     1.000000
  138.1 A     2  2px          0.023100     1.000000
  139.1 A     2  2py          0.023100     1.000000
  140.1 A     2  2pz          0.023100     1.000000
  141.1 A     2  3d0        578.808000     0.000026
                            175.853000     0.000234
                             68.829200     0.001177
                             28.735400     0.005462
                             12.316600    -0.027530
                              7.611430     0.020976
                              4.704520     0.176842
                              2.794650     0.319479
                              1.616440     0.338731
                              0.914211     0.217966
                              0.504730     0.078104
                              0.276280     0.014250
                              0.139200     0.001803
  142.1 A     2  3d2-       578.808000     0.000026
                            175.853000     0.000234
                             68.829200     0.001177
                             28.735400     0.005462
                             12.316600    -0.027530
                              7.611430     0.020976
                              4.704520     0.176842
                              2.794650     0.319479
                              1.616440     0.338731
                              0.914211     0.217966
                              0.504730     0.078104
                              0.276280     0.014250
                              0.139200     0.001803
  143.1 A     2  3d1+       578.808000     0.000026
                            175.853000     0.000234
                             68.829200     0.001177
                             28.735400     0.005462
                             12.316600    -0.027530
                              7.611430     0.020976
                              4.704520     0.176842
                              2.794650     0.319479
                              1.616440     0.338731
                              0.914211     0.217966
                              0.504730     0.078104
                              0.276280     0.014250
                              0.139200     0.001803
  144.1 A     2  3d2+       578.808000     0.000026
                            175.853000     0.000234
                             68.829200     0.001177
                             28.735400     0.005462
                             12.316600    -0.027530
                              7.611430     0.020976
                              4.704520     0.176842
                              2.794650     0.319479
                              1.616440     0.338731
                              0.914211     0.217966
                              0.504730     0.078104
                              0.276280     0.014250
                              0.139200     0.001803
  145.1 A     2  3d1-       578.808000     0.000026
                            175.853000     0.000234
                             68.829200     0.001177
                             28.735400     0.005462
                             12.316600    -0.027530
                              7.611430     0.020976
                              4.704520     0.176842
                              2.794650     0.319479
                              1.616440     0.338731
                              0.914211     0.217966
                              0.504730     0.078104
                              0.276280     0.014250
                              0.139200     0.001803
  146.1 A     2  3d0          1.957500     1.000000
  147.1 A     2  3d2-         1.957500     1.000000
  148.1 A     2  3d1+         1.957500     1.000000
  149.1 A     2  3d2+         1.957500     1.000000
  150.1 A     2  3d1-         1.957500     1.000000
  151.1 A     2  3d0          0.514100     1.000000
  152.1 A     2  3d2-         0.514100     1.000000
  153.1 A     2  3d1+         0.514100     1.000000
  154.1 A     2  3d2+         0.514100     1.000000
  155.1 A     2  3d1-         0.514100     1.000000
  156.1 A     2  3d0          0.296900     1.000000
  157.1 A     2  3d2-         0.296900     1.000000
  158.1 A     2  3d1+         0.296900     1.000000
  159.1 A     2  3d2+         0.296900     1.000000
  160.1 A     2  3d1-         0.296900     1.000000
  161.1 A     2  3d0          0.171500     1.000000
  162.1 A     2  3d2-         0.171500     1.000000
  163.1 A     2  3d1+         0.171500     1.000000
  164.1 A     2  3d2+         0.171500     1.000000
  165.1 A     2  3d1-         0.171500     1.000000
  166.1 A     2  3d0          0.099000     1.000000
  167.1 A     2  3d2-         0.099000     1.000000
  168.1 A     2  3d1+         0.099000     1.000000
  169.1 A     2  3d2+         0.099000     1.000000
  170.1 A     2  3d1-         0.099000     1.000000
  171.1 A     2  4f1+         9.259200     1.000000
  172.1 A     2  4f1-         9.259200     1.000000
  173.1 A     2  4f0          9.259200     1.000000
  174.1 A     2  4f3+         9.259200     1.000000
  175.1 A     2  4f2-         9.259200     1.000000
  176.1 A     2  4f3-         9.259200     1.000000
  177.1 A     2  4f2+         9.259200     1.000000
  178.1 A     2  4f1+         1.779600     1.000000
  179.1 A     2  4f1-         1.779600     1.000000
  180.1 A     2  4f0          1.779600     1.000000
  181.1 A     2  4f3+         1.779600     1.000000
  182.1 A     2  4f2-         1.779600     1.000000
  183.1 A     2  4f3-         1.779600     1.000000
  184.1 A     2  4f2+         1.779600     1.000000
  185.1 A     2  4f1+         0.639500     1.000000
  186.1 A     2  4f1-         0.639500     1.000000
  187.1 A     2  4f0          0.639500     1.000000
  188.1 A     2  4f3+         0.639500     1.000000
  189.1 A     2  4f2-         0.639500     1.000000
  190.1 A     2  4f3-         0.639500     1.000000
  191.1 A     2  4f2+         0.639500     1.000000
  192.1 A     2  4f1+         0.229800     1.000000
  193.1 A     2  4f1-         0.229800     1.000000
  194.1 A     2  4f0          0.229800     1.000000
  195.1 A     2  4f3+         0.229800     1.000000
  196.1 A     2  4f2-         0.229800     1.000000
  197.1 A     2  4f3-         0.229800     1.000000
  198.1 A     2  4f2+         0.229800     1.000000
  199.1 A     2  5g0          0.645800     1.000000
  200.1 A     2  5g2-         0.645800     1.000000
  201.1 A     2  5g1+         0.645800     1.000000
  202.1 A     2  5g4+         0.645800     1.000000
  203.1 A     2  5g1-         0.645800     1.000000
  204.1 A     2  5g2+         0.645800     1.000000
  205.1 A     2  5g4-         0.645800     1.000000
  206.1 A     2  5g3+         0.645800     1.000000
  207.1 A     2  5g3-         0.645800     1.000000
  208.1 A     2  5g0          0.250300     1.000000
  209.1 A     2  5g2-         0.250300     1.000000
  210.1 A     2  5g1+         0.250300     1.000000
  211.1 A     2  5g4+         0.250300     1.000000
  212.1 A     2  5g1-         0.250300     1.000000
  213.1 A     2  5g2+         0.250300     1.000000
  214.1 A     2  5g4-         0.250300     1.000000
  215.1 A     2  5g3+         0.250300     1.000000
  216.1 A     2  5g3-         0.250300     1.000000

 NUCLEAR CHARGE:                   50
 NUMBER OF PRIMITIVE AOS:         474
 NUMBER OF SYMMETRY AOS:          390
 NUMBER OF CONTRACTIONS:          216   (  216A   )
 NUMBER OF INNER CORE ORBITALS:     0   (    0A   )
 NUMBER OF OUTER CORE ORBITALS:    18   (   18A   )
 NUMBER OF VALENCE ORBITALS:        8   (    8A   )


 LX: A            LY: A            LZ: A  


 NUCLEAR REPULSION ENERGY  124.08019389


 Library entry I      S VQZ-PP-F12_MP2       selected for DF group  1
 Library entry I      P VQZ-PP-F12_MP2       selected for DF group  1
 Library entry I      D VQZ-PP-F12_MP2       selected for DF group  1
 Library entry I      F VQZ-PP-F12_MP2       selected for DF group  1
 Library entry I      G VQZ-PP-F12_MP2       selected for DF group  1
 Library entry I      H VQZ-PP-F12_MP2       selected for DF group  1
 Library entry I      I VQZ-PP-F12_MP2       selected for DF group  1
 Basis set:    DF
 Basis size:   694
 Sphericals:   T
 =======================================
 Centre l       exponent    contractions
 =======================================

    1   s      35.595300      1.000000
    1   s      19.291500      1.000000
    1   s       8.112010      1.000000
    1   s       4.952720      1.000000
    1   s       2.940110      1.000000
    1   s       1.746600      1.000000
    1   s       1.048920      1.000000
    1   s       0.645828      1.000000
    1   s       0.400310      1.000000
    1   s       0.287325      1.000000
    1   s       0.156125      1.000000
    1   s       0.079031      1.000000
    1   s       0.033055      1.000000

    1   p      37.649200      1.000000
    1   p      16.449200      1.000000
    1   p       8.202580      1.000000
    1   p       5.829480      1.000000
    1   p       3.199220      1.000000
    1   p       1.658520      1.000000
    1   p       1.061440      1.000000
    1   p       0.701406      1.000000
    1   p       0.468599      1.000000
    1   p       0.289556      1.000000
    1   p       0.145581      1.000000
    1   p       0.074978      1.000000

    1   d      28.009900      1.000000
    1   d      12.590900      1.000000
    1   d       6.883870      1.000000
    1   d       4.561290      1.000000
    1   d       3.368650      1.000000
    1   d       1.797600      1.000000
    1   d       1.038900      1.000000
    1   d       0.709080      1.000000
    1   d       0.467759      1.000000
    1   d       0.252848      1.000000
    1   d       0.102335      1.000000
    1   d       0.067417      1.000000

    1   f      17.897100      1.000000
    1   f      12.854200      1.000000
    1   f       5.204420      1.000000
    1   f       4.065230      1.000000
    1   f       1.521690      1.000000
    1   f       1.110400      1.000000
    1   f       0.792685      1.000000
    1   f       0.469747      1.000000
    1   f       0.236750      1.000000
    1   f       0.111034      1.000000

    1   g      14.101400      1.000000
    1   g       7.973840      1.000000
    1   g       5.271520      1.000000
    1   g       2.564320      1.000000
    1   g       1.394510      1.000000
    1   g       0.709684      1.000000
    1   g       0.449797      1.000000

    1   h      15.785600      1.000000
    1   h       5.940780      1.000000
    1   h       2.533410      1.000000
    1   h       1.335470      1.000000
    1   h       0.532146      1.000000
    1   h       0.311905      1.000000

    1   i       3.494640      1.000000
    1   i       1.877220      1.000000
    1   i       0.849919      1.000000

    2   s      35.595300      1.000000
    2   s      19.291500      1.000000
    2   s       8.112010      1.000000
    2   s       4.952720      1.000000
    2   s       2.940110      1.000000
    2   s       1.746600      1.000000
    2   s       1.048920      1.000000
    2   s       0.645828      1.000000
    2   s       0.400310      1.000000
    2   s       0.287325      1.000000
    2   s       0.156125      1.000000
    2   s       0.079031      1.000000
    2   s       0.033055      1.000000

    2   p      37.649200      1.000000
    2   p      16.449200      1.000000
    2   p       8.202580      1.000000
    2   p       5.829480      1.000000
    2   p       3.199220      1.000000
    2   p       1.658520      1.000000
    2   p       1.061440      1.000000
    2   p       0.701406      1.000000
    2   p       0.468599      1.000000
    2   p       0.289556      1.000000
    2   p       0.145581      1.000000
    2   p       0.074978      1.000000

    2   d      28.009900      1.000000
    2   d      12.590900      1.000000
    2   d       6.883870      1.000000
    2   d       4.561290      1.000000
    2   d       3.368650      1.000000
    2   d       1.797600      1.000000
    2   d       1.038900      1.000000
    2   d       0.709080      1.000000
    2   d       0.467759      1.000000
    2   d       0.252848      1.000000
    2   d       0.102335      1.000000
    2   d       0.067417      1.000000

    2   f      17.897100      1.000000
    2   f      12.854200      1.000000
    2   f       5.204420      1.000000
    2   f       4.065230      1.000000
    2   f       1.521690      1.000000
    2   f       1.110400      1.000000
    2   f       0.792685      1.000000
    2   f       0.469747      1.000000
    2   f       0.236750      1.000000
    2   f       0.111034      1.000000

    2   g      14.101400      1.000000
    2   g       7.973840      1.000000
    2   g       5.271520      1.000000
    2   g       2.564320      1.000000
    2   g       1.394510      1.000000
    2   g       0.709684      1.000000
    2   g       0.449797      1.000000

    2   h      15.785600      1.000000
    2   h       5.940780      1.000000
    2   h       2.533410      1.000000
    2   h       1.335470      1.000000
    2   h       0.532146      1.000000
    2   h       0.311905      1.000000

    2   i       3.494640      1.000000
    2   i       1.877220      1.000000
    2   i       0.849919      1.000000
 =======================================

 Library entry I      S def2-QZVPP-JKFIT     selected for JK group  1
 Library entry I      P def2-QZVPP-JKFIT     selected for JK group  1
 Library entry I      D def2-QZVPP-JKFIT     selected for JK group  1
 Library entry I      F def2-QZVPP-JKFIT     selected for JK group  1
 Library entry I      G def2-QZVPP-JKFIT     selected for JK group  1
 Library entry I      H def2-QZVPP-JKFIT     selected for JK group  1
 Basis set:    JK
 Basis size:   436
 Sphericals:   T
 =======================================
 Centre l       exponent    contractions
 =======================================

    1   s      78.663624      0.022672
    1   s      48.541031     -0.181523
    1   s      29.953789      0.983125

    1   s      18.484236      1.000000
    1   s      11.406634      1.000000
    1   s       7.039130      1.000000
    1   s       4.343955      1.000000
    1   s       2.680746      1.000000
    1   s       1.654357      1.000000
    1   s       1.020952      1.000000
    1   s       0.630062      1.000000
    1   s       0.388833      1.000000
    1   s       0.239962      1.000000

    1   p      58.564944      0.000048
    1   p      32.524986      0.091692
    1   p      18.063613     -0.995787

    1   p      10.032273      1.000000
    1   p       5.571864      1.000000
    1   p       3.094619      1.000000
    1   p       1.718773      1.000000
    1   p       0.954627      1.000000
    1   p       0.530215      1.000000
    1   p       0.294491      1.000000
    1   p       0.163566      1.000000
    1   p       0.090848      1.000000

    1   d      36.660417      0.038285
    1   d      20.124038      0.999267

    1   d      11.073863      1.000000
    1   d       6.106976      1.000000
    1   d       3.374211      1.000000
    1   d       1.867293      1.000000
    1   d       1.034717      1.000000
    1   d       0.573949      1.000000
    1   d       0.318597      1.000000
    1   d       0.176930      1.000000
    1   d       0.098270      1.000000

    1   f      23.924299      0.000522
    1   f      12.079185      1.000000

    1   f       6.098816      1.000000
    1   f       3.079365      1.000000
    1   f       1.524193      1.000000
    1   f       0.769601      1.000000
    1   f       0.396403      1.000000
    1   f       0.200155      1.000000

    1   g      13.390089      0.036145
    1   g       6.828545      0.999347

    1   g       3.447896      1.000000
    1   g       1.591489      1.000000
    1   g       0.700448      1.000000
    1   g       0.239527      1.000000

    1   h       6.009272      1.000000
    1   h       2.163197      1.000000
    1   h       0.778700      1.000000

    2   s      78.663624      0.022672
    2   s      48.541031     -0.181523
    2   s      29.953789      0.983125

    2   s      18.484236      1.000000
    2   s      11.406634      1.000000
    2   s       7.039130      1.000000
    2   s       4.343955      1.000000
    2   s       2.680746      1.000000
    2   s       1.654357      1.000000
    2   s       1.020952      1.000000
    2   s       0.630062      1.000000
    2   s       0.388833      1.000000
    2   s       0.239962      1.000000

    2   p      58.564944      0.000048
    2   p      32.524986      0.091692
    2   p      18.063613     -0.995787

    2   p      10.032273      1.000000
    2   p       5.571864      1.000000
    2   p       3.094619      1.000000
    2   p       1.718773      1.000000
    2   p       0.954627      1.000000
    2   p       0.530215      1.000000
    2   p       0.294491      1.000000
    2   p       0.163566      1.000000
    2   p       0.090848      1.000000

    2   d      36.660417      0.038285
    2   d      20.124038      0.999267

    2   d      11.073863      1.000000
    2   d       6.106976      1.000000
    2   d       3.374211      1.000000
    2   d       1.867293      1.000000
    2   d       1.034717      1.000000
    2   d       0.573949      1.000000
    2   d       0.318597      1.000000
    2   d       0.176930      1.000000
    2   d       0.098270      1.000000

    2   f      23.924299      0.000522
    2   f      12.079185      1.000000

    2   f       6.098816      1.000000
    2   f       3.079365      1.000000
    2   f       1.524193      1.000000
    2   f       0.769601      1.000000
    2   f       0.396403      1.000000
    2   f       0.200155      1.000000

    2   g      13.390089      0.036145
    2   g       6.828545      0.999347

    2   g       3.447896      1.000000
    2   g       1.591489      1.000000
    2   g       0.700448      1.000000
    2   g       0.239527      1.000000

    2   h       6.009272      1.000000
    2   h       2.163197      1.000000
    2   h       0.778700      1.000000
 =======================================

 Library entry I      S def2-QZVPP-JKFIT     selected for RI group  1
 Library entry I      P def2-QZVPP-JKFIT     selected for RI group  1
 Library entry I      D def2-QZVPP-JKFIT     selected for RI group  1
 Library entry I      F def2-QZVPP-JKFIT     selected for RI group  1
 Library entry I      G def2-QZVPP-JKFIT     selected for RI group  1
 Library entry I      H def2-QZVPP-JKFIT     selected for RI group  1
 Basis set:    RI
 Basis size:   436
 Sphericals:   T
 =======================================
 Centre l       exponent    contractions
 =======================================

    1   s      78.663624      0.022672
    1   s      48.541031     -0.181523
    1   s      29.953789      0.983125

    1   s      18.484236      1.000000
    1   s      11.406634      1.000000
    1   s       7.039130      1.000000
    1   s       4.343955      1.000000
    1   s       2.680746      1.000000
    1   s       1.654357      1.000000
    1   s       1.020952      1.000000
    1   s       0.630062      1.000000
    1   s       0.388833      1.000000
    1   s       0.239962      1.000000

    1   p      58.564944      0.000048
    1   p      32.524986      0.091692
    1   p      18.063613     -0.995787

    1   p      10.032273      1.000000
    1   p       5.571864      1.000000
    1   p       3.094619      1.000000
    1   p       1.718773      1.000000
    1   p       0.954627      1.000000
    1   p       0.530215      1.000000
    1   p       0.294491      1.000000
    1   p       0.163566      1.000000
    1   p       0.090848      1.000000

    1   d      36.660417      0.038285
    1   d      20.124038      0.999267

    1   d      11.073863      1.000000
    1   d       6.106976      1.000000
    1   d       3.374211      1.000000
    1   d       1.867293      1.000000
    1   d       1.034717      1.000000
    1   d       0.573949      1.000000
    1   d       0.318597      1.000000
    1   d       0.176930      1.000000
    1   d       0.098270      1.000000

    1   f      23.924299      0.000522
    1   f      12.079185      1.000000

    1   f       6.098816      1.000000
    1   f       3.079365      1.000000
    1   f       1.524193      1.000000
    1   f       0.769601      1.000000
    1   f       0.396403      1.000000
    1   f       0.200155      1.000000

    1   g      13.390089      0.036145
    1   g       6.828545      0.999347

    1   g       3.447896      1.000000
    1   g       1.591489      1.000000
    1   g       0.700448      1.000000
    1   g       0.239527      1.000000

    1   h       6.009272      1.000000
    1   h       2.163197      1.000000
    1   h       0.778700      1.000000

    2   s      78.663624      0.022672
    2   s      48.541031     -0.181523
    2   s      29.953789      0.983125

    2   s      18.484236      1.000000
    2   s      11.406634      1.000000
    2   s       7.039130      1.000000
    2   s       4.343955      1.000000
    2   s       2.680746      1.000000
    2   s       1.654357      1.000000
    2   s       1.020952      1.000000
    2   s       0.630062      1.000000
    2   s       0.388833      1.000000
    2   s       0.239962      1.000000

    2   p      58.564944      0.000048
    2   p      32.524986      0.091692
    2   p      18.063613     -0.995787

    2   p      10.032273      1.000000
    2   p       5.571864      1.000000
    2   p       3.094619      1.000000
    2   p       1.718773      1.000000
    2   p       0.954627      1.000000
    2   p       0.530215      1.000000
    2   p       0.294491      1.000000
    2   p       0.163566      1.000000
    2   p       0.090848      1.000000

    2   d      36.660417      0.038285
    2   d      20.124038      0.999267

    2   d      11.073863      1.000000
    2   d       6.106976      1.000000
    2   d       3.374211      1.000000
    2   d       1.867293      1.000000
    2   d       1.034717      1.000000
    2   d       0.573949      1.000000
    2   d       0.318597      1.000000
    2   d       0.176930      1.000000
    2   d       0.098270      1.000000

    2   f      23.924299      0.000522
    2   f      12.079185      1.000000

    2   f       6.098816      1.000000
    2   f       3.079365      1.000000
    2   f       1.524193      1.000000
    2   f       0.769601      1.000000
    2   f       0.396403      1.000000
    2   f       0.200155      1.000000

    2   g      13.390089      0.036145
    2   g       6.828545      0.999347

    2   g       3.447896      1.000000
    2   g       1.591489      1.000000
    2   g       0.700448      1.000000
    2   g       0.239527      1.000000

    2   h       6.009272      1.000000
    2   h       2.163197      1.000000
    2   h       0.778700      1.000000
 =======================================


 **********************************************************************************************************************************

 EXTRA SYMMETRY OF AOS IN SYMMETRY 1:   1 1 1 1 1 1 1 1 2 3   1 2 3 1 2 3 1 2 3 1   2 3 1 2 3 1 2 3 1 2   3 1 1 4 2 5 3 1 4 2
                                        5 3 1 4 2 5 3 1 4 2   5 3 1 4 2 5 3 1 4 2   5 3 2 3 1 6 4 7 5 2   3 1 6 4 7 5 2 3 1 6
                                        4 7 5 2 3 1 6 4 7 5   1 4 2 8 3 5 9 6 7 1   4 2 8 3 5 9 6 7 1 1   1 1 1 1 1 1 2 3 1 2
                                        3 1 2 3 1 2 3 1 2 3   1 2 3 1 2 3 1 2 3 1   1 4 2 5 3 1 4 2 5 3   1 4 2 5 3 1 4 2 5 3
                                        1 4 2 5 3 1 4 2 5 3   2 3 1 6 4 7 5 2 3 1   6 4 7 5 2 3 1 6 4 7   5 2 3 1 6 4 7 5 1 4
                                        2 8 3 5 9 6 7 1 4 2   8 3 5 9 6 7


 Eigenvalues of metric

         1 0.963E-04 0.133E-03 0.154E-03 0.157E-03 0.157E-03 0.157E-03 0.157E-03 0.157E-03


 OPERATOR DM      FOR CENTER  0  COORDINATES:    0.000000    0.000000    0.000000


 **********************************************************************************************************************************
 DATASETS  * FILE   NREC   LENGTH (MB)   RECORD NAMES
              1      19       31.00       500      610      700      900      950      970     1000      129      960     1100   
                                          VAR    BASINP    GEOM    SYMINP    ZMAT    AOBASIS   BASIS     P2S    ABASIS      S 
                                         1400     1410     1420     1200     1210     1080     1700     1600     1650   
                                           T        V       ECP      H0       H01     AOSYM    OPER      SMH    MOLCAS    

 PROGRAMS   *        TOTAL       INT
 CPU TIMES  *         0.61      0.46
 REAL TIME  *         1.28 SEC
 DISK USED  *        31.36 MB (local),      501.78 MB (total)
 GA USED    *         0.00 MB       (max)       0.00 MB       (current)
 **********************************************************************************************************************************


 Program * Restricted Hartree-Fock

 Coulomb and exchange fitting
 Thresholds for fitting:       THRAO_COUL= 1.0D-15    THRAO_EXCH= 1.0D-13    THRMO= 1.0D-12    THRPROD= 1.0D-12    THRASM= 1.0D-12
                               THR2HLF=    1.0D-12

 Basis set JK loaded. Number of basis functions: 436

 Orbital guess generated from atomic densities. Full valence occupancy:   26
 Using density fitting in orbital guess


 Initial occupancy:  25

 NELEC=   50   SYM=1   MS2= 0   THRE=1.0D-11   THRD=1.0D-06   THRG=1.0D-06  HFMA2=F  DIIS_START=2   DIIS_MAX=10   DIIS_INCORE=F

 Level shifts:    0.00 (CLOSED)    0.00 (OPEN)    0.30 (GAP_MIN)

 ITER           ETOT              DE          GRAD        DDIFF     DIIS  NEXP   TIME(IT)  TIME(TOT)  DIAG
   1     -589.33614985    -589.33614985     0.00D+00     0.64D-01     0     0       0.06      0.13    start
   2     -589.34492890      -0.00877905     0.16D-02     0.20D-02     1     0       0.05      0.18    diag
   3     -589.34819775      -0.00326885     0.12D-02     0.60D-03     2     0       0.06      0.24    diag
   4     -589.34839751      -0.00019976     0.17D-03     0.17D-03     3     0       0.05      0.29    diag
   5     -589.34842229      -0.00002478     0.47D-04     0.83D-04     4     0       0.05      0.34    diag
   6     -589.34842383      -0.00000154     0.14D-04     0.28D-04     5     0       0.05      0.39    diag
   7     -589.34842393      -0.00000009     0.29D-05     0.49D-05     6     0       0.06      0.45    diag
   8     -589.34842393      -0.00000000     0.41D-06     0.89D-06     7     0       0.05      0.50    fixocc
   9     -589.34842393      -0.00000000     0.10D-06     0.16D-06     8     0       0.06      0.56    diag
  10     -589.34842393       0.00000000     0.13D-07     0.22D-07     9     0       0.05      0.61    diag/orth
  11     -589.34842393       0.00000000     0.17D-08     0.25D-08     0     0       0.06      0.67    diag

 Final occupancy:  25

 !RHF STATE 1.1 Energy               -589.348423928359
  RHF One-electron energy           -1275.039677186260
  RHF Two-electron energy             561.611059367684
  RHF Kinetic energy                  221.655938643381
  RHF Nuclear energy                  124.080193890218
  RHF Virial quotient                  -2.658843374716

 !RHF STATE 1.1 Dipole moment           0.00000000     0.00000000     0.00000000
 Dipole moment /Debye                   0.00000000     0.00000000     0.00000000

 ELECTRON ORBITALS
 =================

  Orbital  Occupation    Energy    Cen Mu Typ  Coefficients
    1.1     2.00000    -7.75331     1  1  s    0.70735    2  1  s    0.70735
    2.1     2.00000    -7.75328     1  1  s    0.70728    2  1  s   -0.70728
    3.1     2.00000    -5.58640     1  1  pz   0.71025    2  1  pz  -0.71025
    4.1     2.00000    -5.58614     1  1  pz   0.71037    2  1  pz   0.71037
    5.1     2.00000    -5.57439     1  1  px   0.29970    1  1  py   0.63878    2  1  px   0.29970    2  1  py   0.63878
    6.1     2.00000    -5.57439     1  1  px   0.63878    1  1  py  -0.29970    2  1  px   0.63878    2  1  py  -0.29970
    7.1     2.00000    -5.57435     1  1  py   0.68419    2  1  py  -0.68419
    8.1     2.00000    -5.57435     1  1  px   0.68419    2  1  px  -0.68419
    9.1     2.00000    -2.31870     1  1  d0   0.70382    2  1  d0   0.70382
   10.1     2.00000    -2.31269     1  1  d0   0.70710    2  1  d0  -0.70710
   11.1     2.00000    -2.31137     1  1  d1+  0.43298    1  1  d1-  0.55749    2  1  d1+ -0.43298    2  1  d1- -0.55749
   12.1     2.00000    -2.31137     1  1  d1+  0.55749    1  1  d1- -0.43298    2  1  d1+ -0.55749    2  1  d1-  0.43298
   13.1     2.00000    -2.30942     1  1  d1-  0.70382    2  1  d1-  0.70382
   14.1     2.00000    -2.30942     1  1  d1+  0.70382    2  1  d1+  0.70382
   15.1     2.00000    -2.29680     1  1  d2-  0.69386    2  1  d2-  0.69386
   16.1     2.00000    -2.29680     1  1  d2+  0.69386    2  1  d2+  0.69386
   17.1     2.00000    -2.29666     1  1  d2-  0.69719    2  1  d2- -0.69719
   18.1     2.00000    -2.29666     1  1  d2+  0.69719    2  1  d2+ -0.69719
   19.1     2.00000    -0.96111     1  2  s    0.65979    2  2  s    0.65979
   20.1     2.00000    -0.84196     1  2  s    0.72219    2  2  s   -0.72219
   21.1     2.00000    -0.46832     1  2  pz   0.65482    2  2  pz  -0.65482
[...]

              2       4        1.12       700     1000      520     2100   
                                         GEOM     BASIS   MCVARS     RHF  

 PROGRAMS   *        TOTAL     DF-HF       INT
 CPU TIMES  *         1.31      0.70      0.46
 REAL TIME  *         2.90 SEC
 DISK USED  *        35.43 MB (local),      566.84 MB (total)
 SF USED    *        18.68 MB
 GA USED    *         0.00 MB       (max)       0.00 MB       (current)
 **********************************************************************************************************************************

 Library entry I      S VQZ-PP-F12_MP2       selected for DF group  1
 Library entry I      P VQZ-PP-F12_MP2       selected for DF group  1
 Library entry I      D VQZ-PP-F12_MP2       selected for DF group  1
 Library entry I      F VQZ-PP-F12_MP2       selected for DF group  1
 Library entry I      G VQZ-PP-F12_MP2       selected for DF group  1
 Library entry I      H VQZ-PP-F12_MP2       selected for DF group  1
 Library entry I      I VQZ-PP-F12_MP2       selected for DF group  1
 Basis set:    DF
 Basis size:   694
 Sphericals:   T
 =======================================
 Centre l       exponent    contractions
 =======================================

    1   s      35.595300      1.000000
    1   s      19.291500      1.000000
    1   s       8.112010      1.000000
    1   s       4.952720      1.000000
    1   s       2.940110      1.000000
    1   s       1.746600      1.000000
    1   s       1.048920      1.000000
    1   s       0.645828      1.000000
    1   s       0.400310      1.000000
    1   s       0.287325      1.000000
    1   s       0.156125      1.000000
    1   s       0.079031      1.000000
    1   s       0.033055      1.000000

    1   p      37.649200      1.000000
    1   p      16.449200      1.000000
    1   p       8.202580      1.000000
    1   p       5.829480      1.000000
    1   p       3.199220      1.000000
    1   p       1.658520      1.000000
    1   p       1.061440      1.000000
    1   p       0.701406      1.000000
    1   p       0.468599      1.000000
    1   p       0.289556      1.000000
    1   p       0.145581      1.000000
    1   p       0.074978      1.000000

    1   d      28.009900      1.000000
    1   d      12.590900      1.000000
    1   d       6.883870      1.000000
    1   d       4.561290      1.000000
    1   d       3.368650      1.000000
    1   d       1.797600      1.000000
    1   d       1.038900      1.000000
    1   d       0.709080      1.000000
    1   d       0.467759      1.000000
    1   d       0.252848      1.000000
    1   d       0.102335      1.000000
    1   d       0.067417      1.000000

    1   f      17.897100      1.000000
    1   f      12.854200      1.000000
    1   f       5.204420      1.000000
    1   f       4.065230      1.000000
    1   f       1.521690      1.000000
    1   f       1.110400      1.000000
    1   f       0.792685      1.000000
    1   f       0.469747      1.000000
    1   f       0.236750      1.000000
    1   f       0.111034      1.000000

    1   g      14.101400      1.000000
    1   g       7.973840      1.000000
    1   g       5.271520      1.000000
    1   g       2.564320      1.000000
    1   g       1.394510      1.000000
    1   g       0.709684      1.000000
    1   g       0.449797      1.000000

    1   h      15.785600      1.000000
    1   h       5.940780      1.000000
    1   h       2.533410      1.000000
    1   h       1.335470      1.000000
    1   h       0.532146      1.000000
    1   h       0.311905      1.000000

    1   i       3.494640      1.000000
    1   i       1.877220      1.000000
    1   i       0.849919      1.000000

    2   s      35.595300      1.000000
    2   s      19.291500      1.000000
    2   s       8.112010      1.000000
    2   s       4.952720      1.000000
    2   s       2.940110      1.000000
    2   s       1.746600      1.000000
    2   s       1.048920      1.000000
    2   s       0.645828      1.000000
    2   s       0.400310      1.000000
    2   s       0.287325      1.000000
    2   s       0.156125      1.000000
    2   s       0.079031      1.000000
    2   s       0.033055      1.000000

    2   p      37.649200      1.000000
    2   p      16.449200      1.000000
    2   p       8.202580      1.000000
    2   p       5.829480      1.000000
    2   p       3.199220      1.000000
    2   p       1.658520      1.000000
    2   p       1.061440      1.000000
    2   p       0.701406      1.000000
    2   p       0.468599      1.000000
    2   p       0.289556      1.000000
    2   p       0.145581      1.000000
    2   p       0.074978      1.000000

    2   d      28.009900      1.000000
    2   d      12.590900      1.000000
    2   d       6.883870      1.000000
    2   d       4.561290      1.000000
    2   d       3.368650      1.000000
    2   d       1.797600      1.000000
    2   d       1.038900      1.000000
    2   d       0.709080      1.000000
    2   d       0.467759      1.000000
    2   d       0.252848      1.000000
    2   d       0.102335      1.000000
    2   d       0.067417      1.000000

    2   f      17.897100      1.000000
    2   f      12.854200      1.000000
    2   f       5.204420      1.000000
    2   f       4.065230      1.000000
    2   f       1.521690      1.000000
    2   f       1.110400      1.000000
    2   f       0.792685      1.000000
    2   f       0.469747      1.000000
    2   f       0.236750      1.000000
    2   f       0.111034      1.000000

    2   g      14.101400      1.000000
    2   g       7.973840      1.000000
    2   g       5.271520      1.000000
    2   g       2.564320      1.000000
    2   g       1.394510      1.000000
    2   g       0.709684      1.000000
    2   g       0.449797      1.000000

    2   h      15.785600      1.000000
    2   h       5.940780      1.000000
    2   h       2.533410      1.000000
    2   h       1.335470      1.000000
    2   h       0.532146      1.000000
    2   h       0.311905      1.000000

    2   i       3.494640      1.000000
    2   i       1.877220      1.000000
    2   i       0.849919      1.000000
 =======================================

 Library entry I      S def2-QZVPP-JKFIT     selected for JK group  1
 Library entry I      P def2-QZVPP-JKFIT     selected for JK group  1
 Library entry I      D def2-QZVPP-JKFIT     selected for JK group  1
 Library entry I      F def2-QZVPP-JKFIT     selected for JK group  1
 Library entry I      G def2-QZVPP-JKFIT     selected for JK group  1
 Library entry I      H def2-QZVPP-JKFIT     selected for JK group  1
 Basis set:    JK
 Basis size:   436
 Sphericals:   T
 =======================================
 Centre l       exponent    contractions
 =======================================

    1   s      78.663624      0.022672
    1   s      48.541031     -0.181523
    1   s      29.953789      0.983125

    1   s      18.484236      1.000000
    1   s      11.406634      1.000000
    1   s       7.039130      1.000000
    1   s       4.343955      1.000000
    1   s       2.680746      1.000000
    1   s       1.654357      1.000000
    1   s       1.020952      1.000000
    1   s       0.630062      1.000000
    1   s       0.388833      1.000000
    1   s       0.239962      1.000000

    1   p      58.564944      0.000048
    1   p      32.524986      0.091692
    1   p      18.063613     -0.995787

    1   p      10.032273      1.000000
    1   p       5.571864      1.000000
    1   p       3.094619      1.000000
    1   p       1.718773      1.000000
    1   p       0.954627      1.000000
    1   p       0.530215      1.000000
    1   p       0.294491      1.000000
    1   p       0.163566      1.000000
    1   p       0.090848      1.000000

    1   d      36.660417      0.038285
    1   d      20.124038      0.999267

    1   d      11.073863      1.000000
    1   d       6.106976      1.000000
    1   d       3.374211      1.000000
    1   d       1.867293      1.000000
    1   d       1.034717      1.000000
    1   d       0.573949      1.000000
    1   d       0.318597      1.000000
    1   d       0.176930      1.000000
    1   d       0.098270      1.000000

    1   f      23.924299      0.000522
    1   f      12.079185      1.000000

    1   f       6.098816      1.000000
    1   f       3.079365      1.000000
    1   f       1.524193      1.000000
    1   f       0.769601      1.000000
    1   f       0.396403      1.000000
    1   f       0.200155      1.000000

    1   g      13.390089      0.036145
    1   g       6.828545      0.999347

    1   g       3.447896      1.000000
    1   g       1.591489      1.000000
    1   g       0.700448      1.000000
    1   g       0.239527      1.000000

    1   h       6.009272      1.000000
    1   h       2.163197      1.000000
    1   h       0.778700      1.000000

    2   s      78.663624      0.022672
    2   s      48.541031     -0.181523
    2   s      29.953789      0.983125

    2   s      18.484236      1.000000
    2   s      11.406634      1.000000
    2   s       7.039130      1.000000
    2   s       4.343955      1.000000
    2   s       2.680746      1.000000
    2   s       1.654357      1.000000
    2   s       1.020952      1.000000
    2   s       0.630062      1.000000
    2   s       0.388833      1.000000
    2   s       0.239962      1.000000

    2   p      58.564944      0.000048
    2   p      32.524986      0.091692
    2   p      18.063613     -0.995787

    2   p      10.032273      1.000000
    2   p       5.571864      1.000000
    2   p       3.094619      1.000000
    2   p       1.718773      1.000000
    2   p       0.954627      1.000000
    2   p       0.530215      1.000000
    2   p       0.294491      1.000000
    2   p       0.163566      1.000000
    2   p       0.090848      1.000000

    2   d      36.660417      0.038285
    2   d      20.124038      0.999267

    2   d      11.073863      1.000000
    2   d       6.106976      1.000000
    2   d       3.374211      1.000000
    2   d       1.867293      1.000000
    2   d       1.034717      1.000000
    2   d       0.573949      1.000000
    2   d       0.318597      1.000000
    2   d       0.176930      1.000000
    2   d       0.098270      1.000000

    2   f      23.924299      0.000522
    2   f      12.079185      1.000000

    2   f       6.098816      1.000000
    2   f       3.079365      1.000000
    2   f       1.524193      1.000000
    2   f       0.769601      1.000000
    2   f       0.396403      1.000000
    2   f       0.200155      1.000000

    2   g      13.390089      0.036145
    2   g       6.828545      0.999347

    2   g       3.447896      1.000000
    2   g       1.591489      1.000000
    2   g       0.700448      1.000000
    2   g       0.239527      1.000000

    2   h       6.009272      1.000000
    2   h       2.163197      1.000000
    2   h       0.778700      1.000000
 =======================================

 Library entry I      S def2-QZVPP-JKFIT     selected for RI group  1
 Library entry I      P def2-QZVPP-JKFIT     selected for RI group  1
 Library entry I      D def2-QZVPP-JKFIT     selected for RI group  1
 Library entry I      F def2-QZVPP-JKFIT     selected for RI group  1
 Library entry I      G def2-QZVPP-JKFIT     selected for RI group  1
 Library entry I      H def2-QZVPP-JKFIT     selected for RI group  1
 Basis set:    RI
 Basis size:   436
 Sphericals:   T
 =======================================
 Centre l       exponent    contractions
 =======================================

    1   s      78.663624      0.022672
    1   s      48.541031     -0.181523
    1   s      29.953789      0.983125

    1   s      18.484236      1.000000
    1   s      11.406634      1.000000
    1   s       7.039130      1.000000
    1   s       4.343955      1.000000
    1   s       2.680746      1.000000
    1   s       1.654357      1.000000
    1   s       1.020952      1.000000
    1   s       0.630062      1.000000
    1   s       0.388833      1.000000
    1   s       0.239962      1.000000

    1   p      58.564944      0.000048
    1   p      32.524986      0.091692
    1   p      18.063613     -0.995787

    1   p      10.032273      1.000000
    1   p       5.571864      1.000000
    1   p       3.094619      1.000000
    1   p       1.718773      1.000000
    1   p       0.954627      1.000000
    1   p       0.530215      1.000000
    1   p       0.294491      1.000000
    1   p       0.163566      1.000000
    1   p       0.090848      1.000000

    1   d      36.660417      0.038285
    1   d      20.124038      0.999267

    1   d      11.073863      1.000000
    1   d       6.106976      1.000000
    1   d       3.374211      1.000000
    1   d       1.867293      1.000000
    1   d       1.034717      1.000000
    1   d       0.573949      1.000000
    1   d       0.318597      1.000000
    1   d       0.176930      1.000000
    1   d       0.098270      1.000000

    1   f      23.924299      0.000522
    1   f      12.079185      1.000000

    1   f       6.098816      1.000000
    1   f       3.079365      1.000000
    1   f       1.524193      1.000000
    1   f       0.769601      1.000000
    1   f       0.396403      1.000000
    1   f       0.200155      1.000000

    1   g      13.390089      0.036145
    1   g       6.828545      0.999347

    1   g       3.447896      1.000000
    1   g       1.591489      1.000000
    1   g       0.700448      1.000000
    1   g       0.239527      1.000000

    1   h       6.009272      1.000000
    1   h       2.163197      1.000000
    1   h       0.778700      1.000000

    2   s      78.663624      0.022672
    2   s      48.541031     -0.181523
    2   s      29.953789      0.983125

    2   s      18.484236      1.000000
    2   s      11.406634      1.000000
    2   s       7.039130      1.000000
    2   s       4.343955      1.000000
    2   s       2.680746      1.000000
    2   s       1.654357      1.000000
    2   s       1.020952      1.000000
    2   s       0.630062      1.000000
    2   s       0.388833      1.000000
    2   s       0.239962      1.000000

    2   p      58.564944      0.000048
    2   p      32.524986      0.091692
    2   p      18.063613     -0.995787

    2   p      10.032273      1.000000
    2   p       5.571864      1.000000
    2   p       3.094619      1.000000
    2   p       1.718773      1.000000
    2   p       0.954627      1.000000
    2   p       0.530215      1.000000
    2   p       0.294491      1.000000
    2   p       0.163566      1.000000
    2   p       0.090848      1.000000

    2   d      36.660417      0.038285
    2   d      20.124038      0.999267

    2   d      11.073863      1.000000
    2   d       6.106976      1.000000
    2   d       3.374211      1.000000
    2   d       1.867293      1.000000
    2   d       1.034717      1.000000
    2   d       0.573949      1.000000
    2   d       0.318597      1.000000
    2   d       0.176930      1.000000
    2   d       0.098270      1.000000

    2   f      23.924299      0.000522
    2   f      12.079185      1.000000

    2   f       6.098816      1.000000
    2   f       3.079365      1.000000
    2   f       1.524193      1.000000
    2   f       0.769601      1.000000
    2   f       0.396403      1.000000
    2   f       0.200155      1.000000

    2   g      13.390089      0.036145
    2   g       6.828545      0.999347

    2   g       3.447896      1.000000
    2   g       1.591489      1.000000
    2   g       0.700448      1.000000
    2   g       0.239527      1.000000

    2   h       6.009272      1.000000
    2   h       2.163197      1.000000
    2   h       0.778700      1.000000
 =======================================


 PROGRAM * MP2 (Closed-shell)     Authors: C. Hampel, H.-J. Werner, 1991, M. Deegan, P.J. Knowles, 1992

                                   MP2-F12 implementation by H.-J. Werner, 2007

                   Density fitting integral evaluation by F.R. Manby, 2003,2007, G. Knizia, 2010



 Convergence thresholds:  THRVAR = 1.00D-08  THRDEN = 1.00D-09

 Number of core orbitals:          18 (  18 )
 Number of closed-shell orbitals:   7 (   7 )
 Number of external orbitals:     191 ( 191 )

 Molecular orbitals read from record     2100.2  Type=RHF/CANONICAL  

 MP2-F12 correlation treatment (H.-J. Werner, 2006)
 ==================================================

 Some Fock operators are calculated for F12-singles only.

 AO(A)-basis ORBITAL           loaded. Number of functions:     216
 RI(R)-basis RI                loaded. Number of functions:     436
 Basis set JK loaded. Number of basis functions: 436 
 DF-basis JK                   loaded. Number of functions:     436

 Screening thresholds:   THRAO=  1.00D-10  THRMO=  1.00D-09  THRPROD=  1.00D-09
                         THRSW=  1.00D-05  THROV=  1.00D-12  THRAOF12= 1.00D-08

 CPU time for Fock operators                      0.93 sec

 Construction of ABS:
 Smallest eigenvalue of S          1.30E-06  (threshold= 1.00E-09)
 Ratio eigmin/eigmax               1.83E-07  (threshold= 1.00E-09)
 Smallest eigenvalue of S kept     1.30E-06  (threshold= 1.30E-06, 0 functions deleted, 436 kept)

 Construction of CABS:
 Smallest eigenvalue of S          2.83E-11  (threshold= 1.00E-09)
 Ratio eigmin/eigmax               2.83E-11  (threshold= 1.00E-09)
 Smallest eigenvalue of S kept     2.46E-09  (threshold= 2.46E-09, 8 functions deleted, 428 kept)

 CPU time for CABS singles                        0.07 sec

 CABS-singles contribution of  -0.00025723 patched into reference energy.
 New reference energy        -589.34868116

 Leaving lmp2-f12 by request (CABS_SINGLES < 0) after calculation of singles.


  Reference energy                   -589.348423928359
  F12 singles correction               -0.000257231462

 F12 singles corrections added to reference energy

  New reference energy               -589.348681159822

  F12 singlet correction                0.000000000000
  F12 triplet correction                0.000000000000
  F12 total correction                  0.000000000000
  MP2-F12 singlet pair energy           0.000000000000
  MP2-F12 triplet pair energy           0.000000000000
  MP2-F12 correlation energy            0.000000000000

 !MP2-F12 total energy               -589.348681159822


 **********************************************************************************************************************************
 DATASETS  * FILE   NREC   LENGTH (MB)   RECORD NAMES
              1      19       31.00       500      610      700      900      950      970     1000      129      960     1100   
                                          VAR    BASINP    GEOM    SYMINP    ZMAT    AOBASIS   BASIS     P2S    ABASIS      S 
                                         1400     1410     1420     1200     1210     1080     1700     1600     1650   
                                           T        V       ECP      H0       H01     AOSYM    OPER      SMH    MOLCAS    

              2       5        1.70       700     1000      520     2100     7360   
                                         GEOM     BASIS   MCVARS     RHF    F12ABS    

 PROGRAMS   *        TOTAL   DF-CABS     DF-HF       INT
 CPU TIMES  *         2.44      1.13      0.70      0.46
 REAL TIME  *         4.17 SEC
 DISK USED  *        35.43 MB (local),      566.84 MB (total)
 SF USED    *       241.21 MB
 GA USED    *         3.05 MB       (max)       0.00 MB       (current)
 **********************************************************************************************************************************

 DF-CABS/cc-pVQZ-PP-F12 energy=   -589.348681159822

         DF-CABS           DF-HF
   -589.34868116   -589.34842393
 **********************************************************************************************************************************
 Molpro calculation terminated
