
 Working directory              : /scratch/emmanous/3821791.pbs01/molpro.6o08B4wCZN/
 Global scratch directory       : /scratch/emmanous/3821791.pbs01/molpro.6o08B4wCZN/
 Wavefunction directory         : /home/emmanous/wfu/
 Main file repository           : /scratch/emmanous/3821791.pbs01/molpro.6o08B4wCZN/

 id        : wis

 Nodes     nprocs
 cff054      16
 GA implementation: MPI file
 GA implementation (serial work in mppx): MPI file

 Using DEFAULT tuning parameter for ncache   :   16384
 Using DEFAULT tuning parameter for mflopdgm :   10000
 Using DEFAULT tuning parameter for mflopdgv :    4000
 Using DEFAULT tuning parameter for mflopmxm :    5000
 Using DEFAULT tuning parameter for mflopmxv :    4000
 Using DEFAULT tuning parameter for mindgm   :       1
 Using DEFAULT tuning parameter for mindgc   :       4
 Using DEFAULT tuning parameter for mindgf   :    5000
 Using DEFAULT tuning parameter for mindgl   :       4
 Using DEFAULT tuning parameter for mindgr   :       1
 Using DEFAULT tuning parameter for mindgv   :      20
 Using DEFAULT tuning parameter for mincuda  :     500
 Using DEFAULT tuning parameter for mxmblk   :      64
 Using DEFAULT tuning parameter for mxmbln   :      64
 Using DEFAULT tuning parameter for nroll    :       2
 Using custom tuning parameter for ngpus     :       0
 Using customized tuning parameters: mindgm=1; mindgv=20; mindgc=4; mindgr=1; noblas=0; minvec=7

 Fortran compiler: integer size=8, double size=8, logical size=8
 default implementation of scratch files=sf  


 Variables initialized (1025), CPU time= 0.00 sec
 gprint,basis
 gthresh,energy=1d-9
 ANGSTROM
 geomtyp=xyz
 charge=0
 multiplicity=1
 nosym
 geom={
 I ,0.0000 ,0.0000  0.0000,
 I ,0.0000 ,0.0000 ,2.6655
 }
 
 basis={
 default,cc-pVTZ-PP-F12
 set,df
 default,cc-pVTZ-PP-F12/MP2Fit
 set,jk
 default,cc-pVTZ-PP-F12/JKFIT
 set,ri
 default,def2-QZVPP/JKFit
 }
 {df-hf,df_basis=jk
 wf,,,$multiplicity-1
 print,orbitals
 maxit,300}
 {df-cabs,gem_beta=1.0,df_basis=df,df_basis_exch=jk,ri_basis=ri,thrcabs=1d-9,thrcabs_rel=1d-9;explicit,ignore_bad_singl=1}
 Commands initialized (840), CPU time= 0.01 sec, 684 directives.
 Default parameters read. Elapsed time= 1.71 sec

 Using DEFAULT tuning parameter for mpplat   :       3
 Using DEFAULT tuning parameter for mppspeed :    1600
 Checking input...
 Passed
1


                                         ***  PROGRAM SYSTEM MOLPRO  ***
                                       Copyright, TTI GmbH Stuttgart, 2015
                                    Version 2022.3 linked Wed Nov 30 13:40:34 2022


 **********************************************************************************************************************************
 LABEL *                                                                                 
  64 bit mpp version                                                                     DATE: 13-Jul-23          TIME: 11:31:07  
 **********************************************************************************************************************************

 SHA1:             e31ec9a5ea85254ab76f59d122cbdd51c71cf98b
 **********************************************************************************************************************************

 Memory per process:      1000 MW
 Total memory per node:  16000 MW

 GA preallocation disabled
 GA check disabled

 Variable memory set to 1000.0 MW



 THRESHOLDS:

 ZERO    =  1.00D-12  ONEINT  =  1.00D-12  TWOINT  =  1.00D-11  PREFAC  =  1.00D-14  XXXXXX  =  1.00D-09  EORDER  =  1.00D-04
 ENERGY  =  1.00D-09  ETEST   =  0.00D+00  EDENS   =  0.00D+00  THRDEDEF=  1.00D-06  GRADIENT=  1.00D-05  STEP    =  1.00D-03
 ORBITAL =  1.00D-05  CIVEC   =  1.00D-05  COEFF   =  1.00D-04  PRINTCI =  5.00D-02  PUNCHCI =  9.90D+01  OPTGRAD =  3.00D-04
 OPTENERG=  1.00D-06  OPTSTEP =  3.00D-04  THRGRAD =  1.00D-10  COMPRESS=  1.00D-11  VARMIN  =  1.00D-07  VARMAX  =  1.00D-03
 THRDOUB =  0.00D+00  THRDIV  =  1.00D-05  THRRED  =  1.00D-07  THRPSP  =  1.00D+00  THRDC   =  1.00D-10  THRCS   =  1.00D-10
 THRNRM  =  1.00D-08  THREQ   =  0.00D+00  THRDE   =  1.00D+00  THRREF  =  1.00D-05  SPARFAC =  1.00D+00  THRDLP  =  1.00D-07
 THRDIA  =  1.00D-10  THRDLS  =  1.00D-07  THRGPS  =  0.00D+00  THRKEX  =  0.00D+00  THRDIS  =  2.00D-01  THRVAR  =  1.00D-10
 THRLOC  =  1.00D-06  THRGAP  =  1.00D-06  THRLOCT = -1.00D+00  THRGAPT = -1.00D+00  THRORB  =  1.00D-06  THRMLTP =  0.00D+00
 THRCPQCI=  1.00D-10  KEXTA   =  0.00D+00  THRCOARS=  0.00D+00  SYMTOL  =  1.00D-06  GRADTOL =  1.00D-06  THROVL  =  1.00D-08
 THRORTH =  1.00D-08  THRDLOVL= -1.00D+00  GRID    =  1.00D-06  GRIDMAX =  1.00D-03  DTMAX   =  0.00D+00  THROCCDE=  1.00D-01
 THROCCDE=  1.00D-01  THRPRINT=  2.50D-01

 SETTING GEOMTYP        =    XYZ
 SETTING CHARGE         =      0.0000000D+00                                  
 SETTING MULTIPLICITY   =         1.00000000                                  
 ZSYMEL=NOSYM
 ZUNIT=ANG

 SETTING BASIS          =    CC-PVTZ-PP-F12


 Recomputing integrals since basis changed


 Using spherical harmonics

 Library entry I    ECP ECP28MDF                 selected for group  1
 Library entry I      S cc-pVTZ-PP-F12       selected for orbital group  1
 Library entry I      P cc-pVTZ-PP-F12       selected for orbital group  1
 Library entry I      D cc-pVTZ-PP-F12       selected for orbital group  1
 Library entry I      F cc-pVTZ-PP-F12       selected for orbital group  1


 PROGRAM * SEWARD (Integral evaluation for generally contracted gaussian basis sets)     Author: Roland Lindh, 1990

 Geometry written to block  1 of record 700


 Point group  C1  



 ATOMIC COORDINATES

 NR  ATOM    CHARGE       X              Y              Z

   1  I      25.00    0.000000000    0.000000000    0.000000000
   2  I      25.00    0.000000000    0.000000000    5.037064985

 Bond lengths in Bohr (Angstrom)

 1-2  5.037064985
     ( 2.665500000)


          I   CORE POTENTIAL

          g POTENTIAL

 POWERS             2
 EXPONENTIALS   1.000000    
 COEFFICIENTS   0.000000    

          s - g POTENTIAL

 POWERS             2              2              2
 EXPONENTIALS   40.03338       17.30058       8.851720    
 COEFFICIENTS   49.98965       281.0066       61.41674    

          p - g POTENTIAL

 POWERS             2              2              2              2
 EXPONENTIALS   15.72014       15.20822       8.294186       7.753949    
 COEFFICIENTS   67.41624       134.8077       14.56655       28.96842    

          d - g POTENTIAL

 POWERS             2              2              2              2
 EXPONENTIALS   13.81775       13.58780       6.947630       6.960099    
 COEFFICIENTS   35.53876       53.33976       9.716466       14.97750    

          f - g POTENTIAL

 POWERS             2              2              2              2
 EXPONENTIALS   18.52295       18.25104       7.557901       7.597404    
 COEFFICIENTS  -20.17662      -26.08808     -0.2204340     -0.2216460    


          I   SPIN-ORBIT POTENTIAL

          p POTENTIAL

 POWERS             2              2              2              2
 EXPONENTIALS   15.72014       15.20822       8.294186       7.753949    
 COEFFICIENTS  -134.8325       134.8077      -29.13310       28.96842    

          d POTENTIAL

 POWERS             2              2              2              2
 EXPONENTIALS   13.81775       13.58780       6.947630       6.960099    
 COEFFICIENTS  -35.53876       35.55984      -9.716466       9.985000    

          f POTENTIAL

 POWERS             2              2              2              2
 EXPONENTIALS   18.52295       18.25104       7.557901       7.597404    
 COEFFICIENTS   13.45108      -13.04404      0.1469560     -0.1108230    


          I   CORE POTENTIAL

          g POTENTIAL

 POWERS             2
 EXPONENTIALS   1.000000    
 COEFFICIENTS   0.000000    

          s - g POTENTIAL

 POWERS             2              2              2
 EXPONENTIALS   40.03338       17.30058       8.851720    
 COEFFICIENTS   49.98965       281.0066       61.41674    

          p - g POTENTIAL

 POWERS             2              2              2              2
 EXPONENTIALS   15.72014       15.20822       8.294186       7.753949    
 COEFFICIENTS   67.41624       134.8077       14.56655       28.96842    

          d - g POTENTIAL

 POWERS             2              2              2              2
 EXPONENTIALS   13.81775       13.58780       6.947630       6.960099    
 COEFFICIENTS   35.53876       53.33976       9.716466       14.97750    

          f - g POTENTIAL

 POWERS             2              2              2              2
 EXPONENTIALS   18.52295       18.25104       7.557901       7.597404    
 COEFFICIENTS  -20.17662      -26.08808     -0.2204340     -0.2216460    


          I   SPIN-ORBIT POTENTIAL

          p POTENTIAL

 POWERS             2              2              2              2
 EXPONENTIALS   15.72014       15.20822       8.294186       7.753949    
 COEFFICIENTS  -134.8325       134.8077      -29.13310       28.96842    

          d POTENTIAL

 POWERS             2              2              2              2
 EXPONENTIALS   13.81775       13.58780       6.947630       6.960099    
 COEFFICIENTS  -35.53876       35.55984      -9.716466       9.985000    

          f POTENTIAL

 POWERS             2              2              2              2
 EXPONENTIALS   18.52295       18.25104       7.557901       7.597404    
 COEFFICIENTS   13.45108      -13.04404      0.1469560     -0.1108230    


 BASIS DATA

   Nr Sym  Nuc  Type         Exponents   Contraction coefficients

    1.1 A     1  1s       16900.000000     0.000040    0.000019    0.000000    0.000000    0.000000    0.000000
    2.1 A                  2541.390000     0.000294    0.000142    0.000000    0.000000    0.000000    0.000000
    3.1 A                   574.413000     0.001214    0.000592    0.000000    0.000000    0.000000    0.000000
    4.1 A                   150.945000     0.002596    0.001243    0.000000    0.000000    0.000000    0.000000
    5.1 A                    29.163100    -0.053623   -0.022721    0.000000    0.000000    0.000000    0.000000
    6.1 A                    18.219600     0.343917    0.157708    0.000000    0.000000    0.000000    0.000000
                             11.336500    -0.367427   -0.200092    0.000000    0.000000    0.000000    0.000000
                              6.924080    -0.538904   -0.216152    0.000000    0.000000    0.000000    0.000000
                              2.509810     0.709567    0.413439    0.000000    0.000000    0.000000    0.000000
                              1.351130     0.628061    0.534585    0.000000    0.000000    0.000000    0.000000
                              0.616379     0.091842    0.092352    1.000000    0.000000    0.000000    0.000000
                              0.383455    -0.012243   -0.588463    0.000000    1.000000    0.000000    0.000000
                              0.180056     0.002875   -0.619281    0.000000    0.000000    1.000000    0.000000
                              0.082327    -0.000289   -0.151399    0.000000    0.000000    0.000000    1.000000
    7.1 A     1  1s           0.033100     1.000000
    8.1 A     1  2px        649.159000     0.000095
                            148.087000     0.000629
                             20.101800     0.045324
                             10.446600    -0.230231
                              6.358830    -0.004960
                              3.048460     0.513927
                              1.559500     0.506093
                              0.768911     0.131659
                              0.354814     0.006125
                              0.154766     0.001746
                              0.064699     0.000092
    9.1 A     1  2py        649.159000     0.000095
                            148.087000     0.000629
                             20.101800     0.045324
                             10.446600    -0.230231
                              6.358830    -0.004960
                              3.048460     0.513927
                              1.559500     0.506093
                              0.768911     0.131659
                              0.354814     0.006125
                              0.154766     0.001746
                              0.064699     0.000092
   10.1 A     1  2pz        649.159000     0.000095
                            148.087000     0.000629
                             20.101800     0.045324
                             10.446600    -0.230231
                              6.358830    -0.004960
                              3.048460     0.513927
                              1.559500     0.506093
                              0.768911     0.131659
                              0.354814     0.006125
                              0.154766     0.001746
                              0.064699     0.000092
   11.1 A     1  2px        649.159000    -0.000032
                            148.087000    -0.000253
                             20.101800    -0.016098
                             10.446600     0.089910
                              6.358830    -0.015655
                              3.048460    -0.207783
                              1.559500    -0.248081
                              0.768911     0.040334
                              0.354814     0.451573
                              0.154766     0.503131
                              0.064699     0.175533
   12.1 A     1  2py        649.159000    -0.000032
                            148.087000    -0.000253
                             20.101800    -0.016098
                             10.446600     0.089910
                              6.358830    -0.015655
                              3.048460    -0.207783
                              1.559500    -0.248081
                              0.768911     0.040334
                              0.354814     0.451573
                              0.154766     0.503131
                              0.064699     0.175533
   13.1 A     1  2pz        649.159000    -0.000032
                            148.087000    -0.000253
                             20.101800    -0.016098
                             10.446600     0.089910
                              6.358830    -0.015655
                              3.048460    -0.207783
                              1.559500    -0.248081
                              0.768911     0.040334
                              0.354814     0.451573
                              0.154766     0.503131
                              0.064699     0.175533
   14.1 A     1  2px        649.159000     0.000000
                            148.087000     0.000000
                             20.101800     0.000000
                             10.446600     0.000000
                              6.358830     0.000000
                              3.048460     0.000000
                              1.559500     0.000000
                              0.768911     1.000000
                              0.354814     0.000000
                              0.154766     0.000000
                              0.064699     0.000000
   15.1 A     1  2py        649.159000     0.000000
                            148.087000     0.000000
                             20.101800     0.000000
                             10.446600     0.000000
                              6.358830     0.000000
                              3.048460     0.000000
                              1.559500     0.000000
                              0.768911     1.000000
                              0.354814     0.000000
                              0.154766     0.000000
                              0.064699     0.000000
   16.1 A     1  2pz        649.159000     0.000000
                            148.087000     0.000000
                             20.101800     0.000000
                             10.446600     0.000000
                              6.358830     0.000000
                              3.048460     0.000000
                              1.559500     0.000000
                              0.768911     1.000000
                              0.354814     0.000000
                              0.154766     0.000000
                              0.064699     0.000000
   17.1 A     1  2px        649.159000     0.000000
                            148.087000     0.000000
                             20.101800     0.000000
                             10.446600     0.000000
                              6.358830     0.000000
                              3.048460     0.000000
                              1.559500     0.000000
                              0.768911     0.000000
                              0.354814     1.000000
                              0.154766     0.000000
                              0.064699     0.000000
   18.1 A     1  2py        649.159000     0.000000
                            148.087000     0.000000
                             20.101800     0.000000
                             10.446600     0.000000
                              6.358830     0.000000
                              3.048460     0.000000
                              1.559500     0.000000
                              0.768911     0.000000
                              0.354814     1.000000
                              0.154766     0.000000
                              0.064699     0.000000
   19.1 A     1  2pz        649.159000     0.000000
                            148.087000     0.000000
                             20.101800     0.000000
                             10.446600     0.000000
                              6.358830     0.000000
                              3.048460     0.000000
                              1.559500     0.000000
                              0.768911     0.000000
                              0.354814     1.000000
                              0.154766     0.000000
                              0.064699     0.000000
   20.1 A     1  2px        649.159000     0.000000
                            148.087000     0.000000
                             20.101800     0.000000
                             10.446600     0.000000
                              6.358830     0.000000
                              3.048460     0.000000
                              1.559500     0.000000
                              0.768911     0.000000
                              0.354814     0.000000
                              0.154766     1.000000
                              0.064699     0.000000
   21.1 A     1  2py        649.159000     0.000000
                            148.087000     0.000000
                             20.101800     0.000000
                             10.446600     0.000000
                              6.358830     0.000000
                              3.048460     0.000000
                              1.559500     0.000000
                              0.768911     0.000000
                              0.354814     0.000000
                              0.154766     1.000000
                              0.064699     0.000000
   22.1 A     1  2pz        649.159000     0.000000
                            148.087000     0.000000
                             20.101800     0.000000
                             10.446600     0.000000
                              6.358830     0.000000
                              3.048460     0.000000
                              1.559500     0.000000
                              0.768911     0.000000
                              0.354814     0.000000
                              0.154766     1.000000
                              0.064699     0.000000
   23.1 A     1  2px        649.159000     0.000000
                            148.087000     0.000000
                             20.101800     0.000000
                             10.446600     0.000000
                              6.358830     0.000000
                              3.048460     0.000000
                              1.559500     0.000000
                              0.768911     0.000000
                              0.354814     0.000000
                              0.154766     0.000000
                              0.064699     1.000000
   24.1 A     1  2py        649.159000     0.000000
                            148.087000     0.000000
                             20.101800     0.000000
                             10.446600     0.000000
                              6.358830     0.000000
                              3.048460     0.000000
                              1.559500     0.000000
                              0.768911     0.000000
                              0.354814     0.000000
                              0.154766     0.000000
                              0.064699     1.000000
   25.1 A     1  2pz        649.159000     0.000000
                            148.087000     0.000000
                             20.101800     0.000000
                             10.446600     0.000000
                              6.358830     0.000000
                              3.048460     0.000000
                              1.559500     0.000000
                              0.768911     0.000000
                              0.354814     0.000000
                              0.154766     0.000000
                              0.064699     1.000000
   26.1 A     1  2px          0.025700     1.000000
   27.1 A     1  2py          0.025700     1.000000
   28.1 A     1  2pz          0.025700     1.000000
   29.1 A     1  3d0        585.445000     0.000025
                            177.468000     0.000231
                             69.219300     0.001173
                             28.639200     0.005584
                             12.715300    -0.023830
                              5.479270     0.116814
                              3.354930     0.272731
                              1.984230     0.340174
                              1.152540     0.268699
                              0.651017     0.129809
                              0.347445     0.033044
                              0.154700     0.003067
   30.1 A     1  3d2-       585.445000     0.000025
                            177.468000     0.000231
                             69.219300     0.001173
                             28.639200     0.005584
                             12.715300    -0.023830
                              5.479270     0.116814
                              3.354930     0.272731
                              1.984230     0.340174
                              1.152540     0.268699
                              0.651017     0.129809
                              0.347445     0.033044
                              0.154700     0.003067
   31.1 A     1  3d1+       585.445000     0.000025
                            177.468000     0.000231
                             69.219300     0.001173
                             28.639200     0.005584
                             12.715300    -0.023830
                              5.479270     0.116814
                              3.354930     0.272731
                              1.984230     0.340174
                              1.152540     0.268699
                              0.651017     0.129809
                              0.347445     0.033044
                              0.154700     0.003067
   32.1 A     1  3d2+       585.445000     0.000025
                            177.468000     0.000231
                             69.219300     0.001173
                             28.639200     0.005584
                             12.715300    -0.023830
                              5.479270     0.116814
                              3.354930     0.272731
                              1.984230     0.340174
                              1.152540     0.268699
                              0.651017     0.129809
                              0.347445     0.033044
                              0.154700     0.003067
   33.1 A     1  3d1-       585.445000     0.000025
                            177.468000     0.000231
                             69.219300     0.001173
                             28.639200     0.005584
                             12.715300    -0.023830
                              5.479270     0.116814
                              3.354930     0.272731
                              1.984230     0.340174
                              1.152540     0.268699
                              0.651017     0.129809
                              0.347445     0.033044
                              0.154700     0.003067
   34.1 A     1  3d0          1.954400     1.000000
   35.1 A     1  3d2-         1.954400     1.000000
   36.1 A     1  3d1+         1.954400     1.000000
   37.1 A     1  3d2+         1.954400     1.000000
   38.1 A     1  3d1-         1.954400     1.000000
   39.1 A     1  3d0          0.454300     1.000000
   40.1 A     1  3d2-         0.454300     1.000000
   41.1 A     1  3d1+         0.454300     1.000000
   42.1 A     1  3d2+         0.454300     1.000000
   43.1 A     1  3d1-         0.454300     1.000000
   44.1 A     1  3d0          0.225300     1.000000
   45.1 A     1  3d2-         0.225300     1.000000
   46.1 A     1  3d1+         0.225300     1.000000
   47.1 A     1  3d2+         0.225300     1.000000
   48.1 A     1  3d1-         0.225300     1.000000
   49.1 A     1  3d0          0.111800     1.000000
   50.1 A     1  3d2-         0.111800     1.000000
   51.1 A     1  3d1+         0.111800     1.000000
   52.1 A     1  3d2+         0.111800     1.000000
   53.1 A     1  3d1-         0.111800     1.000000
   54.1 A     1  4f1+         6.650100     1.000000
   55.1 A     1  4f1-         6.650100     1.000000
   56.1 A     1  4f0          6.650100     1.000000
   57.1 A     1  4f3+         6.650100     1.000000
   58.1 A     1  4f2-         6.650100     1.000000
   59.1 A     1  4f3-         6.650100     1.000000
   60.1 A     1  4f2+         6.650100     1.000000
   61.1 A     1  4f1+         0.835400     1.000000
   62.1 A     1  4f1-         0.835400     1.000000
   63.1 A     1  4f0          0.835400     1.000000
   64.1 A     1  4f3+         0.835400     1.000000
   65.1 A     1  4f2-         0.835400     1.000000
   66.1 A     1  4f3-         0.835400     1.000000
   67.1 A     1  4f2+         0.835400     1.000000
   68.1 A     1  4f1+         0.246600     1.000000
   69.1 A     1  4f1-         0.246600     1.000000
   70.1 A     1  4f0          0.246600     1.000000
   71.1 A     1  4f3+         0.246600     1.000000
   72.1 A     1  4f2-         0.246600     1.000000
   73.1 A     1  4f3-         0.246600     1.000000
   74.1 A     1  4f2+         0.246600     1.000000
   75.1 A     2  1s       16900.000000     0.000040    0.000019    0.000000    0.000000    0.000000    0.000000
   76.1 A                  2541.390000     0.000294    0.000142    0.000000    0.000000    0.000000    0.000000
   77.1 A                   574.413000     0.001214    0.000592    0.000000    0.000000    0.000000    0.000000
   78.1 A                   150.945000     0.002596    0.001243    0.000000    0.000000    0.000000    0.000000
   79.1 A                    29.163100    -0.053623   -0.022721    0.000000    0.000000    0.000000    0.000000
   80.1 A                    18.219600     0.343917    0.157708    0.000000    0.000000    0.000000    0.000000
                             11.336500    -0.367427   -0.200092    0.000000    0.000000    0.000000    0.000000
                              6.924080    -0.538904   -0.216152    0.000000    0.000000    0.000000    0.000000
                              2.509810     0.709567    0.413439    0.000000    0.000000    0.000000    0.000000
                              1.351130     0.628061    0.534585    0.000000    0.000000    0.000000    0.000000
                              0.616379     0.091842    0.092352    1.000000    0.000000    0.000000    0.000000
                              0.383455    -0.012243   -0.588463    0.000000    1.000000    0.000000    0.000000
                              0.180056     0.002875   -0.619281    0.000000    0.000000    1.000000    0.000000
                              0.082327    -0.000289   -0.151399    0.000000    0.000000    0.000000    1.000000
   81.1 A     2  1s           0.033100     1.000000
   82.1 A     2  2px        649.159000     0.000095
                            148.087000     0.000629
                             20.101800     0.045324
                             10.446600    -0.230231
                              6.358830    -0.004960
                              3.048460     0.513927
                              1.559500     0.506093
                              0.768911     0.131659
                              0.354814     0.006125
                              0.154766     0.001746
                              0.064699     0.000092
   83.1 A     2  2py        649.159000     0.000095
                            148.087000     0.000629
                             20.101800     0.045324
                             10.446600    -0.230231
                              6.358830    -0.004960
                              3.048460     0.513927
                              1.559500     0.506093
                              0.768911     0.131659
                              0.354814     0.006125
                              0.154766     0.001746
                              0.064699     0.000092
   84.1 A     2  2pz        649.159000     0.000095
                            148.087000     0.000629
                             20.101800     0.045324
                             10.446600    -0.230231
                              6.358830    -0.004960
                              3.048460     0.513927
                              1.559500     0.506093
                              0.768911     0.131659
                              0.354814     0.006125
                              0.154766     0.001746
                              0.064699     0.000092
   85.1 A     2  2px        649.159000    -0.000032
                            148.087000    -0.000253
                             20.101800    -0.016098
                             10.446600     0.089910
                              6.358830    -0.015655
                              3.048460    -0.207783
                              1.559500    -0.248081
                              0.768911     0.040334
                              0.354814     0.451573
                              0.154766     0.503131
                              0.064699     0.175533
   86.1 A     2  2py        649.159000    -0.000032
                            148.087000    -0.000253
                             20.101800    -0.016098
                             10.446600     0.089910
                              6.358830    -0.015655
                              3.048460    -0.207783
                              1.559500    -0.248081
                              0.768911     0.040334
                              0.354814     0.451573
                              0.154766     0.503131
                              0.064699     0.175533
   87.1 A     2  2pz        649.159000    -0.000032
                            148.087000    -0.000253
                             20.101800    -0.016098
                             10.446600     0.089910
                              6.358830    -0.015655
                              3.048460    -0.207783
                              1.559500    -0.248081
                              0.768911     0.040334
                              0.354814     0.451573
                              0.154766     0.503131
                              0.064699     0.175533
   88.1 A     2  2px        649.159000     0.000000
                            148.087000     0.000000
                             20.101800     0.000000
                             10.446600     0.000000
                              6.358830     0.000000
                              3.048460     0.000000
                              1.559500     0.000000
                              0.768911     1.000000
                              0.354814     0.000000
                              0.154766     0.000000
                              0.064699     0.000000
   89.1 A     2  2py        649.159000     0.000000
                            148.087000     0.000000
                             20.101800     0.000000
                             10.446600     0.000000
                              6.358830     0.000000
                              3.048460     0.000000
                              1.559500     0.000000
                              0.768911     1.000000
                              0.354814     0.000000
                              0.154766     0.000000
                              0.064699     0.000000
   90.1 A     2  2pz        649.159000     0.000000
                            148.087000     0.000000
                             20.101800     0.000000
                             10.446600     0.000000
                              6.358830     0.000000
                              3.048460     0.000000
                              1.559500     0.000000
                              0.768911     1.000000
                              0.354814     0.000000
                              0.154766     0.000000
                              0.064699     0.000000
   91.1 A     2  2px        649.159000     0.000000
                            148.087000     0.000000
                             20.101800     0.000000
                             10.446600     0.000000
                              6.358830     0.000000
                              3.048460     0.000000
                              1.559500     0.000000
                              0.768911     0.000000
                              0.354814     1.000000
                              0.154766     0.000000
                              0.064699     0.000000
   92.1 A     2  2py        649.159000     0.000000
                            148.087000     0.000000
                             20.101800     0.000000
                             10.446600     0.000000
                              6.358830     0.000000
                              3.048460     0.000000
                              1.559500     0.000000
                              0.768911     0.000000
                              0.354814     1.000000
                              0.154766     0.000000
                              0.064699     0.000000
   93.1 A     2  2pz        649.159000     0.000000
                            148.087000     0.000000
                             20.101800     0.000000
                             10.446600     0.000000
                              6.358830     0.000000
                              3.048460     0.000000
                              1.559500     0.000000
                              0.768911     0.000000
                              0.354814     1.000000
                              0.154766     0.000000
                              0.064699     0.000000
   94.1 A     2  2px        649.159000     0.000000
                            148.087000     0.000000
                             20.101800     0.000000
                             10.446600     0.000000
                              6.358830     0.000000
                              3.048460     0.000000
                              1.559500     0.000000
                              0.768911     0.000000
                              0.354814     0.000000
                              0.154766     1.000000
                              0.064699     0.000000
   95.1 A     2  2py        649.159000     0.000000
                            148.087000     0.000000
                             20.101800     0.000000
                             10.446600     0.000000
                              6.358830     0.000000
                              3.048460     0.000000
                              1.559500     0.000000
                              0.768911     0.000000
                              0.354814     0.000000
                              0.154766     1.000000
                              0.064699     0.000000
   96.1 A     2  2pz        649.159000     0.000000
                            148.087000     0.000000
                             20.101800     0.000000
                             10.446600     0.000000
                              6.358830     0.000000
                              3.048460     0.000000
                              1.559500     0.000000
                              0.768911     0.000000
                              0.354814     0.000000
                              0.154766     1.000000
                              0.064699     0.000000
   97.1 A     2  2px        649.159000     0.000000
                            148.087000     0.000000
                             20.101800     0.000000
                             10.446600     0.000000
                              6.358830     0.000000
                              3.048460     0.000000
                              1.559500     0.000000
                              0.768911     0.000000
                              0.354814     0.000000
                              0.154766     0.000000
                              0.064699     1.000000
   98.1 A     2  2py        649.159000     0.000000
                            148.087000     0.000000
                             20.101800     0.000000
                             10.446600     0.000000
                              6.358830     0.000000
                              3.048460     0.000000
                              1.559500     0.000000
                              0.768911     0.000000
                              0.354814     0.000000
                              0.154766     0.000000
                              0.064699     1.000000
   99.1 A     2  2pz        649.159000     0.000000
                            148.087000     0.000000
                             20.101800     0.000000
                             10.446600     0.000000
                              6.358830     0.000000
                              3.048460     0.000000
                              1.559500     0.000000
                              0.768911     0.000000
                              0.354814     0.000000
                              0.154766     0.000000
                              0.064699     1.000000
  100.1 A     2  2px          0.025700     1.000000
  101.1 A     2  2py          0.025700     1.000000
  102.1 A     2  2pz          0.025700     1.000000
  103.1 A     2  3d0        585.445000     0.000025
                            177.468000     0.000231
                             69.219300     0.001173
                             28.639200     0.005584
                             12.715300    -0.023830
                              5.479270     0.116814
                              3.354930     0.272731
                              1.984230     0.340174
                              1.152540     0.268699
                              0.651017     0.129809
                              0.347445     0.033044
                              0.154700     0.003067
  104.1 A     2  3d2-       585.445000     0.000025
                            177.468000     0.000231
                             69.219300     0.001173
                             28.639200     0.005584
                             12.715300    -0.023830
                              5.479270     0.116814
                              3.354930     0.272731
                              1.984230     0.340174
                              1.152540     0.268699
                              0.651017     0.129809
                              0.347445     0.033044
                              0.154700     0.003067
  105.1 A     2  3d1+       585.445000     0.000025
                            177.468000     0.000231
                             69.219300     0.001173
                             28.639200     0.005584
                             12.715300    -0.023830
                              5.479270     0.116814
                              3.354930     0.272731
                              1.984230     0.340174
                              1.152540     0.268699
                              0.651017     0.129809
                              0.347445     0.033044
                              0.154700     0.003067
  106.1 A     2  3d2+       585.445000     0.000025
                            177.468000     0.000231
                             69.219300     0.001173
                             28.639200     0.005584
                             12.715300    -0.023830
                              5.479270     0.116814
                              3.354930     0.272731
                              1.984230     0.340174
                              1.152540     0.268699
                              0.651017     0.129809
                              0.347445     0.033044
                              0.154700     0.003067
  107.1 A     2  3d1-       585.445000     0.000025
                            177.468000     0.000231
                             69.219300     0.001173
                             28.639200     0.005584
                             12.715300    -0.023830
                              5.479270     0.116814
                              3.354930     0.272731
                              1.984230     0.340174
                              1.152540     0.268699
                              0.651017     0.129809
                              0.347445     0.033044
                              0.154700     0.003067
  108.1 A     2  3d0          1.954400     1.000000
  109.1 A     2  3d2-         1.954400     1.000000
  110.1 A     2  3d1+         1.954400     1.000000
  111.1 A     2  3d2+         1.954400     1.000000
  112.1 A     2  3d1-         1.954400     1.000000
  113.1 A     2  3d0          0.454300     1.000000
  114.1 A     2  3d2-         0.454300     1.000000
  115.1 A     2  3d1+         0.454300     1.000000
  116.1 A     2  3d2+         0.454300     1.000000
  117.1 A     2  3d1-         0.454300     1.000000
  118.1 A     2  3d0          0.225300     1.000000
  119.1 A     2  3d2-         0.225300     1.000000
  120.1 A     2  3d1+         0.225300     1.000000
  121.1 A     2  3d2+         0.225300     1.000000
  122.1 A     2  3d1-         0.225300     1.000000
  123.1 A     2  3d0          0.111800     1.000000
  124.1 A     2  3d2-         0.111800     1.000000
  125.1 A     2  3d1+         0.111800     1.000000
  126.1 A     2  3d2+         0.111800     1.000000
  127.1 A     2  3d1-         0.111800     1.000000
  128.1 A     2  4f1+         6.650100     1.000000
  129.1 A     2  4f1-         6.650100     1.000000
  130.1 A     2  4f0          6.650100     1.000000
  131.1 A     2  4f3+         6.650100     1.000000
  132.1 A     2  4f2-         6.650100     1.000000
  133.1 A     2  4f3-         6.650100     1.000000
  134.1 A     2  4f2+         6.650100     1.000000
  135.1 A     2  4f1+         0.835400     1.000000
  136.1 A     2  4f1-         0.835400     1.000000
  137.1 A     2  4f0          0.835400     1.000000
  138.1 A     2  4f3+         0.835400     1.000000
  139.1 A     2  4f2-         0.835400     1.000000
  140.1 A     2  4f3-         0.835400     1.000000
  141.1 A     2  4f2+         0.835400     1.000000
  142.1 A     2  4f1+         0.246600     1.000000
  143.1 A     2  4f1-         0.246600     1.000000
  144.1 A     2  4f0          0.246600     1.000000
  145.1 A     2  4f3+         0.246600     1.000000
  146.1 A     2  4f2-         0.246600     1.000000
  147.1 A     2  4f3-         0.246600     1.000000
  148.1 A     2  4f2+         0.246600     1.000000

 NUCLEAR CHARGE:                   50
 NUMBER OF PRIMITIVE AOS:         354
 NUMBER OF SYMMETRY AOS:          304
 NUMBER OF CONTRACTIONS:          148   (  148A   )
 NUMBER OF INNER CORE ORBITALS:     0   (    0A   )
 NUMBER OF OUTER CORE ORBITALS:    18   (   18A   )
 NUMBER OF VALENCE ORBITALS:        8   (    8A   )


 LX: A            LY: A            LZ: A  


 NUCLEAR REPULSION ENERGY  124.08019389


 Library entry I      S VTZ-PP-F12_MP2       selected for DF group  1
 Library entry I      P VTZ-PP-F12_MP2       selected for DF group  1
 Library entry I      D VTZ-PP-F12_MP2       selected for DF group  1
 Library entry I      F VTZ-PP-F12_MP2       selected for DF group  1
 Library entry I      G VTZ-PP-F12_MP2       selected for DF group  1
 Library entry I      H VTZ-PP-F12_MP2       selected for DF group  1
 Basis set:    DF
 Basis size:   514
 Sphericals:   T
 =======================================
 Centre l       exponent    contractions
 =======================================

    1   s      43.437200      1.000000
    1   s      15.579500      1.000000
    1   s       7.605810      1.000000
    1   s       5.222280      1.000000
    1   s       3.035660      1.000000
    1   s       1.789590      1.000000
    1   s       1.070510      1.000000
    1   s       0.665634      1.000000
    1   s       0.420234      1.000000
    1   s       0.306312      1.000000
    1   s       0.169880      1.000000
    1   s       0.086999      1.000000

    1   p      23.490700      1.000000
    1   p      16.825700      1.000000
    1   p      11.192200      1.000000
    1   p       7.254350      1.000000
    1   p       3.442250      1.000000
    1   p       1.908190      1.000000
    1   p       1.095780      1.000000
    1   p       0.682967      1.000000
    1   p       0.463375      1.000000
    1   p       0.297085      1.000000
    1   p       0.154622      1.000000
    1   p       0.083323      1.000000

    1   d      20.196100      1.000000
    1   d      10.094800      1.000000
    1   d       7.266010      1.000000
    1   d       4.577600      1.000000
    1   d       2.888130      1.000000
    1   d       1.564430      1.000000
    1   d       0.910567      1.000000
    1   d       0.623216      1.000000
    1   d       0.301535      1.000000
    1   d       0.126410      1.000000
    1   d       0.080144      1.000000

    1   f      12.409400      1.000000
    1   f       9.649490      1.000000
    1   f       5.648330      1.000000
    1   f       2.399980      1.000000
    1   f       1.548880      1.000000
    1   f       0.856077      1.000000
    1   f       0.539250      1.000000
    1   f       0.271770      1.000000

    1   g       7.322640      1.000000
    1   g       4.680810      1.000000
    1   g       3.026350      1.000000
    1   g       1.728350      1.000000
    1   g       0.933418      1.000000
    1   g       0.507005      1.000000

    1   h      10.901500      1.000000
    1   h       4.032440      1.000000
    1   h       2.265370      1.000000
    1   h       1.021703      1.000000

    2   s      43.437200      1.000000
    2   s      15.579500      1.000000
    2   s       7.605810      1.000000
    2   s       5.222280      1.000000
    2   s       3.035660      1.000000
    2   s       1.789590      1.000000
    2   s       1.070510      1.000000
    2   s       0.665634      1.000000
    2   s       0.420234      1.000000
    2   s       0.306312      1.000000
    2   s       0.169880      1.000000
    2   s       0.086999      1.000000

    2   p      23.490700      1.000000
    2   p      16.825700      1.000000
    2   p      11.192200      1.000000
    2   p       7.254350      1.000000
    2   p       3.442250      1.000000
    2   p       1.908190      1.000000
    2   p       1.095780      1.000000
    2   p       0.682967      1.000000
    2   p       0.463375      1.000000
    2   p       0.297085      1.000000
    2   p       0.154622      1.000000
    2   p       0.083323      1.000000

    2   d      20.196100      1.000000
    2   d      10.094800      1.000000
    2   d       7.266010      1.000000
    2   d       4.577600      1.000000
    2   d       2.888130      1.000000
    2   d       1.564430      1.000000
    2   d       0.910567      1.000000
    2   d       0.623216      1.000000
    2   d       0.301535      1.000000
    2   d       0.126410      1.000000
    2   d       0.080144      1.000000

    2   f      12.409400      1.000000
    2   f       9.649490      1.000000
    2   f       5.648330      1.000000
    2   f       2.399980      1.000000
    2   f       1.548880      1.000000
    2   f       0.856077      1.000000
    2   f       0.539250      1.000000
    2   f       0.271770      1.000000

    2   g       7.322640      1.000000
    2   g       4.680810      1.000000
    2   g       3.026350      1.000000
    2   g       1.728350      1.000000
    2   g       0.933418      1.000000
    2   g       0.507005      1.000000

    2   h      10.901500      1.000000
    2   h       4.032440      1.000000
    2   h       2.265370      1.000000
    2   h       1.021703      1.000000
 =======================================

 Library entry I      S def2-QZVPP-JKFIT     selected for JK group  1
 Library entry I      P def2-QZVPP-JKFIT     selected for JK group  1
 Library entry I      D def2-QZVPP-JKFIT     selected for JK group  1
 Library entry I      F def2-QZVPP-JKFIT     selected for JK group  1
 Library entry I      G def2-QZVPP-JKFIT     selected for JK group  1
 Library entry I      H def2-QZVPP-JKFIT     selected for JK group  1
 Basis set:    JK
 Basis size:   436
 Sphericals:   T
 =======================================
 Centre l       exponent    contractions
 =======================================

    1   s      78.663624      0.022672
    1   s      48.541031     -0.181523
    1   s      29.953789      0.983125

    1   s      18.484236      1.000000
    1   s      11.406634      1.000000
    1   s       7.039130      1.000000
    1   s       4.343955      1.000000
    1   s       2.680746      1.000000
    1   s       1.654357      1.000000
    1   s       1.020952      1.000000
    1   s       0.630062      1.000000
    1   s       0.388833      1.000000
    1   s       0.239962      1.000000

    1   p      58.564944      0.000048
    1   p      32.524986      0.091692
    1   p      18.063613     -0.995787

    1   p      10.032273      1.000000
    1   p       5.571864      1.000000
    1   p       3.094619      1.000000
    1   p       1.718773      1.000000
    1   p       0.954627      1.000000
    1   p       0.530215      1.000000
    1   p       0.294491      1.000000
    1   p       0.163566      1.000000
    1   p       0.090848      1.000000

    1   d      36.660417      0.038285
    1   d      20.124038      0.999267

    1   d      11.073863      1.000000
    1   d       6.106976      1.000000
    1   d       3.374211      1.000000
    1   d       1.867293      1.000000
    1   d       1.034717      1.000000
    1   d       0.573949      1.000000
    1   d       0.318597      1.000000
    1   d       0.176930      1.000000
    1   d       0.098270      1.000000

    1   f      23.924299      0.000522
    1   f      12.079185      1.000000

    1   f       6.098816      1.000000
    1   f       3.079365      1.000000
    1   f       1.524193      1.000000
    1   f       0.769601      1.000000
    1   f       0.396403      1.000000
    1   f       0.200155      1.000000

    1   g      13.390089      0.036145
    1   g       6.828545      0.999347

    1   g       3.447896      1.000000
    1   g       1.591489      1.000000
    1   g       0.700448      1.000000
    1   g       0.239527      1.000000

    1   h       6.009272      1.000000
    1   h       2.163197      1.000000
    1   h       0.778700      1.000000

    2   s      78.663624      0.022672
    2   s      48.541031     -0.181523
    2   s      29.953789      0.983125

    2   s      18.484236      1.000000
    2   s      11.406634      1.000000
    2   s       7.039130      1.000000
    2   s       4.343955      1.000000
    2   s       2.680746      1.000000
    2   s       1.654357      1.000000
    2   s       1.020952      1.000000
    2   s       0.630062      1.000000
    2   s       0.388833      1.000000
    2   s       0.239962      1.000000

    2   p      58.564944      0.000048
    2   p      32.524986      0.091692
    2   p      18.063613     -0.995787

    2   p      10.032273      1.000000
    2   p       5.571864      1.000000
    2   p       3.094619      1.000000
    2   p       1.718773      1.000000
    2   p       0.954627      1.000000
    2   p       0.530215      1.000000
    2   p       0.294491      1.000000
    2   p       0.163566      1.000000
    2   p       0.090848      1.000000

    2   d      36.660417      0.038285
    2   d      20.124038      0.999267

    2   d      11.073863      1.000000
    2   d       6.106976      1.000000
    2   d       3.374211      1.000000
    2   d       1.867293      1.000000
    2   d       1.034717      1.000000
    2   d       0.573949      1.000000
    2   d       0.318597      1.000000
    2   d       0.176930      1.000000
    2   d       0.098270      1.000000

    2   f      23.924299      0.000522
    2   f      12.079185      1.000000

    2   f       6.098816      1.000000
    2   f       3.079365      1.000000
    2   f       1.524193      1.000000
    2   f       0.769601      1.000000
    2   f       0.396403      1.000000
    2   f       0.200155      1.000000

    2   g      13.390089      0.036145
    2   g       6.828545      0.999347

    2   g       3.447896      1.000000
    2   g       1.591489      1.000000
    2   g       0.700448      1.000000
    2   g       0.239527      1.000000

    2   h       6.009272      1.000000
    2   h       2.163197      1.000000
    2   h       0.778700      1.000000
 =======================================

 Library entry I      S def2-QZVPP-JKFIT     selected for RI group  1
 Library entry I      P def2-QZVPP-JKFIT     selected for RI group  1
 Library entry I      D def2-QZVPP-JKFIT     selected for RI group  1
 Library entry I      F def2-QZVPP-JKFIT     selected for RI group  1
 Library entry I      G def2-QZVPP-JKFIT     selected for RI group  1
 Library entry I      H def2-QZVPP-JKFIT     selected for RI group  1
 Basis set:    RI
 Basis size:   436
 Sphericals:   T
 =======================================
 Centre l       exponent    contractions
 =======================================

    1   s      78.663624      0.022672
    1   s      48.541031     -0.181523
    1   s      29.953789      0.983125

    1   s      18.484236      1.000000
    1   s      11.406634      1.000000
    1   s       7.039130      1.000000
    1   s       4.343955      1.000000
    1   s       2.680746      1.000000
    1   s       1.654357      1.000000
    1   s       1.020952      1.000000
    1   s       0.630062      1.000000
    1   s       0.388833      1.000000
    1   s       0.239962      1.000000

    1   p      58.564944      0.000048
    1   p      32.524986      0.091692
    1   p      18.063613     -0.995787

    1   p      10.032273      1.000000
    1   p       5.571864      1.000000
    1   p       3.094619      1.000000
    1   p       1.718773      1.000000
    1   p       0.954627      1.000000
    1   p       0.530215      1.000000
    1   p       0.294491      1.000000
    1   p       0.163566      1.000000
    1   p       0.090848      1.000000

    1   d      36.660417      0.038285
    1   d      20.124038      0.999267

    1   d      11.073863      1.000000
    1   d       6.106976      1.000000
    1   d       3.374211      1.000000
    1   d       1.867293      1.000000
    1   d       1.034717      1.000000
    1   d       0.573949      1.000000
    1   d       0.318597      1.000000
    1   d       0.176930      1.000000
    1   d       0.098270      1.000000

    1   f      23.924299      0.000522
    1   f      12.079185      1.000000

    1   f       6.098816      1.000000
    1   f       3.079365      1.000000
    1   f       1.524193      1.000000
    1   f       0.769601      1.000000
    1   f       0.396403      1.000000
    1   f       0.200155      1.000000

    1   g      13.390089      0.036145
    1   g       6.828545      0.999347

    1   g       3.447896      1.000000
    1   g       1.591489      1.000000
    1   g       0.700448      1.000000
    1   g       0.239527      1.000000

    1   h       6.009272      1.000000
    1   h       2.163197      1.000000
    1   h       0.778700      1.000000

    2   s      78.663624      0.022672
    2   s      48.541031     -0.181523
    2   s      29.953789      0.983125

    2   s      18.484236      1.000000
    2   s      11.406634      1.000000
    2   s       7.039130      1.000000
    2   s       4.343955      1.000000
    2   s       2.680746      1.000000
    2   s       1.654357      1.000000
    2   s       1.020952      1.000000
    2   s       0.630062      1.000000
    2   s       0.388833      1.000000
    2   s       0.239962      1.000000

    2   p      58.564944      0.000048
    2   p      32.524986      0.091692
    2   p      18.063613     -0.995787

    2   p      10.032273      1.000000
    2   p       5.571864      1.000000
    2   p       3.094619      1.000000
    2   p       1.718773      1.000000
    2   p       0.954627      1.000000
    2   p       0.530215      1.000000
    2   p       0.294491      1.000000
    2   p       0.163566      1.000000
    2   p       0.090848      1.000000

    2   d      36.660417      0.038285
    2   d      20.124038      0.999267

    2   d      11.073863      1.000000
    2   d       6.106976      1.000000
    2   d       3.374211      1.000000
    2   d       1.867293      1.000000
    2   d       1.034717      1.000000
    2   d       0.573949      1.000000
    2   d       0.318597      1.000000
    2   d       0.176930      1.000000
    2   d       0.098270      1.000000

    2   f      23.924299      0.000522
    2   f      12.079185      1.000000

    2   f       6.098816      1.000000
    2   f       3.079365      1.000000
    2   f       1.524193      1.000000
    2   f       0.769601      1.000000
    2   f       0.396403      1.000000
    2   f       0.200155      1.000000

    2   g      13.390089      0.036145
    2   g       6.828545      0.999347

    2   g       3.447896      1.000000
    2   g       1.591489      1.000000
    2   g       0.700448      1.000000
    2   g       0.239527      1.000000

    2   h       6.009272      1.000000
    2   h       2.163197      1.000000
    2   h       0.778700      1.000000
 =======================================


 **********************************************************************************************************************************

 EXTRA SYMMETRY OF AOS IN SYMMETRY 1:   1 1 1 1 1 1 1 2 3 1   2 3 1 2 3 1 2 3 1 2   3 1 2 3 1 2 3 1 1 4   2 5 3 1 4 2 5 3 1 4
                                        2 5 3 1 4 2 5 3 1 4   2 5 3 2 3 1 6 4 7 5   2 3 1 6 4 7 5 2 3 1   6 4 7 5 1 1 1 1 1 1
                                        1 2 3 1 2 3 1 2 3 1   2 3 1 2 3 1 2 3 1 2   3 1 1 4 2 5 3 1 4 2   5 3 1 4 2 5 3 1 4 2
                                        5 3 1 4 2 5 3 2 3 1   6 4 7 5 2 3 1 6 4 7   5 2 3 1 6 4 7 5


 Eigenvalues of metric

         1 0.151E-03 0.152E-03 0.152E-03 0.152E-03 0.152E-03 0.152E-03 0.398E-03 0.723E-03


 OPERATOR DM      FOR CENTER  0  COORDINATES:    0.000000    0.000000    0.000000


 **********************************************************************************************************************************
 DATASETS  * FILE   NREC   LENGTH (MB)   RECORD NAMES
              1      19       29.74       500      610      700      900      950      970     1000      129      960     1100   
                                          VAR    BASINP    GEOM    SYMINP    ZMAT    AOBASIS   BASIS     P2S    ABASIS      S 
                                         1400     1410     1420     1200     1210     1080     1700     1600     1650   
                                           T        V       ECP      H0       H01     AOSYM    OPER      SMH    MOLCAS    

 PROGRAMS   *        TOTAL       INT
 CPU TIMES  *         0.51      0.36
 REAL TIME  *         4.13 SEC
 DISK USED  *        30.07 MB (local),      481.05 MB (total)
 GA USED    *         0.00 MB       (max)       0.00 MB       (current)
 **********************************************************************************************************************************


 Program * Restricted Hartree-Fock

 Coulomb and exchange fitting
 Thresholds for fitting:       THRAO_COUL= 1.0D-15    THRAO_EXCH= 1.0D-13    THRMO= 1.0D-12    THRPROD= 1.0D-12    THRASM= 1.0D-12
                               THR2HLF=    1.0D-12

 Basis set JK loaded. Number of basis functions: 436

 Orbital guess generated from atomic densities. Full valence occupancy:   26
 Using density fitting in orbital guess


 Initial occupancy:  25

 NELEC=   50   SYM=1   MS2= 0   THRE=1.0D-11   THRD=1.0D-06   THRG=1.0D-06  HFMA2=F  DIIS_START=2   DIIS_MAX=10   DIIS_INCORE=F

 Level shifts:    0.00 (CLOSED)    0.00 (OPEN)    0.30 (GAP_MIN)

 ITER           ETOT              DE          GRAD        DDIFF     DIIS  NEXP   TIME(IT)  TIME(TOT)  DIAG
   1     -589.33505806    -589.33505806     0.00D+00     0.94D-01     0     0       0.04      0.08    start
   2     -589.34410708      -0.00904902     0.18D-02     0.30D-02     1     0       0.04      0.12    diag
   3     -589.34683293      -0.00272586     0.12D-02     0.85D-03     2     0       0.03      0.15    diag
   4     -589.34701216      -0.00017923     0.17D-03     0.25D-03     3     0       0.03      0.18    diag
   5     -589.34702978      -0.00001762     0.48D-04     0.92D-04     4     0       0.04      0.22    diag
   6     -589.34703077      -0.00000099     0.14D-04     0.26D-04     5     0       0.04      0.26    diag
   7     -589.34703082      -0.00000006     0.28D-05     0.48D-05     6     0       0.03      0.29    diag
   8     -589.34703082      -0.00000000     0.39D-06     0.99D-06     7     0       0.03      0.32    fixocc
   9     -589.34703082      -0.00000000     0.91D-07     0.17D-06     8     0       0.04      0.36    diag
  10     -589.34703082      -0.00000000     0.12D-07     0.21D-07     9     0       0.04      0.40    diag/orth
  11     -589.34703082       0.00000000     0.17D-08     0.28D-08     0     0       0.04      0.44    diag

 Final occupancy:  25

 !RHF STATE 1.1 Energy               -589.347030822752
  RHF One-electron energy           -1275.020870084306
  RHF Two-electron energy             561.593645371336
  RHF Kinetic energy                  221.651907994967
  RHF Nuclear energy                  124.080193890218
  RHF Virial quotient                  -2.658885439579

 !RHF STATE 1.1 Dipole moment          -0.00000000     0.00000000     0.00000000
 Dipole moment /Debye                  -0.00000000     0.00000000     0.00000000

 ELECTRON ORBITALS
 =================

  Orbital  Occupation    Energy    Cen Mu Typ  Coefficients
    1.1     2.00000    -7.75373     1  1  s    0.70716    2  1  s    0.70716
    2.1     2.00000    -7.75370     1  1  s    0.70719    2  1  s   -0.70719
    3.1     2.00000    -5.58746     1  1  pz   0.70940    2  1  pz  -0.70940
    4.1     2.00000    -5.58719     1  1  pz   0.70955    2  1  pz   0.70955
    5.1     2.00000    -5.57446     1  1  py   0.68967    2  1  py   0.68967
    6.1     2.00000    -5.57446     1  1  px   0.68967    2  1  px   0.68967
    7.1     2.00000    -5.57443     1  1  px  -0.26907    1  1  py   0.65265    2  1  px   0.26907    2  1  py  -0.65265
    8.1     2.00000    -5.57443     1  1  px   0.65265    1  1  py   0.26907    2  1  px  -0.65265    2  1  py  -0.26907
    9.1     2.00000    -2.31955     1  1  d0   0.70372    2  1  d0   0.70372
   10.1     2.00000    -2.31359     1  1  d0   0.70714    2  1  d0  -0.70714
   11.1     2.00000    -2.31196     1  1  d1+  0.36949    1  1  d1-  0.60147    2  1  d1+ -0.36949    2  1  d1- -0.60147
   12.1     2.00000    -2.31196     1  1  d1+  0.60147    1  1  d1- -0.36949    2  1  d1+ -0.60147    2  1  d1-  0.36949
   13.1     2.00000    -2.31002     1  1  d1+  0.68734    2  1  d1+  0.68734
   14.1     2.00000    -2.31002     1  1  d1-  0.68734    2  1  d1-  0.68734
   15.1     2.00000    -2.29669     1  1  d2-  0.65492    1  1  d2+ -0.26943    2  1  d2-  0.65492    2  1  d2+ -0.26943
   16.1     2.00000    -2.29669     1  1  d2-  0.26943    1  1  d2+  0.65492    2  1  d2-  0.26943    2  1  d2+  0.65492
   17.1     2.00000    -2.29655     1  1  d2-  0.58131    1  1  d2+ -0.40461    2  1  d2- -0.58131    2  1  d2+  0.40461
   18.1     2.00000    -2.29655     1  1  d2-  0.40461    1  1  d2+  0.58131    2  1  d2- -0.40461    2  1  d2+ -0.58131
   19.1     2.00000    -0.96170     1  2  s    0.65218    2  2  s    0.65218
   20.1     2.00000    -0.84209     1  2  s    0.72437    2  2  s   -0.72437
   21.1     2.00000    -0.46886     1  2  pz   0.64955    2  2  pz  -0.64955
   22.1     2.00000    -0.44003     1  2  py   0.66050    2  2  py   0.66050
   23.1     2.00000    -0.44003     1  2  px   0.66050    2  2  px   0.66050
   24.1     2.00000    -0.36032     1  2  px  -0.34530    1  2  py   0.65212    2  2  px   0.34530    2  2  py  -0.65212
   25.1     2.00000    -0.36032     1  2  px   0.65212    1  2  py   0.34530    2  2  px  -0.65212    2  2  py  -0.34530


 HOMO     25.1    -0.360323 =      -9.8049eV
 LUMO     26.1    -0.019937 =      -0.5425eV
 LUMO-HOMO         0.340386 =       9.2624eV

 Orbitals saved in record  2100.2


 **********************************************************************************************************************************
 DATASETS  * FILE   NREC   LENGTH (MB)   RECORD NAMES
              1      19       29.74       500      610      700      900      950      970     1000      129      960     1100   
                                          VAR    BASINP    GEOM    SYMINP    ZMAT    AOBASIS   BASIS     P2S    ABASIS      S 
                                         1400     1410     1420     1200     1210     1080     1700     1600     1650   
                                           T        V       ECP      H0       H01     AOSYM    OPER      SMH    MOLCAS    

              2       4        0.73       700     1000      520     2100   
                                         GEOM     BASIS   MCVARS     RHF  

 PROGRAMS   *        TOTAL     DF-HF       INT
 CPU TIMES  *         1.54      0.97      0.36
 REAL TIME  *         5.44 SEC
 DISK USED  *        32.05 MB (local),      512.79 MB (total)
 SF USED    *        12.80 MB
 GA USED    *         0.00 MB       (max)       0.00 MB       (current)
 **********************************************************************************************************************************

 Library entry I      S VTZ-PP-F12_MP2       selected for DF group  1
 Library entry I      P VTZ-PP-F12_MP2       selected for DF group  1
 Library entry I      D VTZ-PP-F12_MP2       selected for DF group  1
 Library entry I      F VTZ-PP-F12_MP2       selected for DF group  1
 Library entry I      G VTZ-PP-F12_MP2       selected for DF group  1
 Library entry I      H VTZ-PP-F12_MP2       selected for DF group  1
 Basis set:    DF
 Basis size:   514
 Sphericals:   T
 =======================================
 Centre l       exponent    contractions
 =======================================

    1   s      43.437200      1.000000
    1   s      15.579500      1.000000
    1   s       7.605810      1.000000
    1   s       5.222280      1.000000
    1   s       3.035660      1.000000
    1   s       1.789590      1.000000
    1   s       1.070510      1.000000
    1   s       0.665634      1.000000
    1   s       0.420234      1.000000
    1   s       0.306312      1.000000
    1   s       0.169880      1.000000
    1   s       0.086999      1.000000

    1   p      23.490700      1.000000
    1   p      16.825700      1.000000
    1   p      11.192200      1.000000
    1   p       7.254350      1.000000
    1   p       3.442250      1.000000
    1   p       1.908190      1.000000
    1   p       1.095780      1.000000
    1   p       0.682967      1.000000
    1   p       0.463375      1.000000
    1   p       0.297085      1.000000
    1   p       0.154622      1.000000
    1   p       0.083323      1.000000

    1   d      20.196100      1.000000
    1   d      10.094800      1.000000
    1   d       7.266010      1.000000
    1   d       4.577600      1.000000
    1   d       2.888130      1.000000
    1   d       1.564430      1.000000
    1   d       0.910567      1.000000
    1   d       0.623216      1.000000
    1   d       0.301535      1.000000
    1   d       0.126410      1.000000
    1   d       0.080144      1.000000

    1   f      12.409400      1.000000
    1   f       9.649490      1.000000
    1   f       5.648330      1.000000
    1   f       2.399980      1.000000
    1   f       1.548880      1.000000
    1   f       0.856077      1.000000
    1   f       0.539250      1.000000
    1   f       0.271770      1.000000

    1   g       7.322640      1.000000
    1   g       4.680810      1.000000
    1   g       3.026350      1.000000
    1   g       1.728350      1.000000
    1   g       0.933418      1.000000
    1   g       0.507005      1.000000

    1   h      10.901500      1.000000
    1   h       4.032440      1.000000
    1   h       2.265370      1.000000
    1   h       1.021703      1.000000

    2   s      43.437200      1.000000
    2   s      15.579500      1.000000
    2   s       7.605810      1.000000
    2   s       5.222280      1.000000
    2   s       3.035660      1.000000
    2   s       1.789590      1.000000
    2   s       1.070510      1.000000
    2   s       0.665634      1.000000
    2   s       0.420234      1.000000
    2   s       0.306312      1.000000
    2   s       0.169880      1.000000
    2   s       0.086999      1.000000

    2   p      23.490700      1.000000
    2   p      16.825700      1.000000
    2   p      11.192200      1.000000
    2   p       7.254350      1.000000
    2   p       3.442250      1.000000
    2   p       1.908190      1.000000
    2   p       1.095780      1.000000
    2   p       0.682967      1.000000
    2   p       0.463375      1.000000
    2   p       0.297085      1.000000
    2   p       0.154622      1.000000
    2   p       0.083323      1.000000

    2   d      20.196100      1.000000
    2   d      10.094800      1.000000
    2   d       7.266010      1.000000
    2   d       4.577600      1.000000
    2   d       2.888130      1.000000
    2   d       1.564430      1.000000
    2   d       0.910567      1.000000
    2   d       0.623216      1.000000
    2   d       0.301535      1.000000
    2   d       0.126410      1.000000
    2   d       0.080144      1.000000

    2   f      12.409400      1.000000
    2   f       9.649490      1.000000
    2   f       5.648330      1.000000
    2   f       2.399980      1.000000
    2   f       1.548880      1.000000
    2   f       0.856077      1.000000
    2   f       0.539250      1.000000
    2   f       0.271770      1.000000

    2   g       7.322640      1.000000
    2   g       4.680810      1.000000
    2   g       3.026350      1.000000
    2   g       1.728350      1.000000
    2   g       0.933418      1.000000
    2   g       0.507005      1.000000

    2   h      10.901500      1.000000
    2   h       4.032440      1.000000
    2   h       2.265370      1.000000
    2   h       1.021703      1.000000
 =======================================

 Library entry I      S def2-QZVPP-JKFIT     selected for JK group  1
 Library entry I      P def2-QZVPP-JKFIT     selected for JK group  1
 Library entry I      D def2-QZVPP-JKFIT     selected for JK group  1
 Library entry I      F def2-QZVPP-JKFIT     selected for JK group  1
 Library entry I      G def2-QZVPP-JKFIT     selected for JK group  1
 Library entry I      H def2-QZVPP-JKFIT     selected for JK group  1
 Basis set:    JK
 Basis size:   436
 Sphericals:   T
 =======================================
 Centre l       exponent    contractions
 =======================================

    1   s      78.663624      0.022672
    1   s      48.541031     -0.181523
    1   s      29.953789      0.983125

    1   s      18.484236      1.000000
    1   s      11.406634      1.000000
    1   s       7.039130      1.000000
    1   s       4.343955      1.000000
    1   s       2.680746      1.000000
    1   s       1.654357      1.000000
    1   s       1.020952      1.000000
    1   s       0.630062      1.000000
    1   s       0.388833      1.000000
    1   s       0.239962      1.000000

    1   p      58.564944      0.000048
    1   p      32.524986      0.091692
    1   p      18.063613     -0.995787

    1   p      10.032273      1.000000
    1   p       5.571864      1.000000
    1   p       3.094619      1.000000
    1   p       1.718773      1.000000
    1   p       0.954627      1.000000
    1   p       0.530215      1.000000
    1   p       0.294491      1.000000
    1   p       0.163566      1.000000
    1   p       0.090848      1.000000

    1   d      36.660417      0.038285
    1   d      20.124038      0.999267

    1   d      11.073863      1.000000
    1   d       6.106976      1.000000
    1   d       3.374211      1.000000
    1   d       1.867293      1.000000
    1   d       1.034717      1.000000
    1   d       0.573949      1.000000
    1   d       0.318597      1.000000
    1   d       0.176930      1.000000
    1   d       0.098270      1.000000

    1   f      23.924299      0.000522
    1   f      12.079185      1.000000

    1   f       6.098816      1.000000
    1   f       3.079365      1.000000
    1   f       1.524193      1.000000
    1   f       0.769601      1.000000
    1   f       0.396403      1.000000
    1   f       0.200155      1.000000

    1   g      13.390089      0.036145
    1   g       6.828545      0.999347

    1   g       3.447896      1.000000
    1   g       1.591489      1.000000
    1   g       0.700448      1.000000
    1   g       0.239527      1.000000

    1   h       6.009272      1.000000
    1   h       2.163197      1.000000
    1   h       0.778700      1.000000

    2   s      78.663624      0.022672
    2   s      48.541031     -0.181523
    2   s      29.953789      0.983125

    2   s      18.484236      1.000000
    2   s      11.406634      1.000000
    2   s       7.039130      1.000000
    2   s       4.343955      1.000000
    2   s       2.680746      1.000000
    2   s       1.654357      1.000000
    2   s       1.020952      1.000000
    2   s       0.630062      1.000000
    2   s       0.388833      1.000000
    2   s       0.239962      1.000000

    2   p      58.564944      0.000048
    2   p      32.524986      0.091692
    2   p      18.063613     -0.995787

    2   p      10.032273      1.000000
    2   p       5.571864      1.000000
    2   p       3.094619      1.000000
    2   p       1.718773      1.000000
    2   p       0.954627      1.000000
    2   p       0.530215      1.000000
    2   p       0.294491      1.000000
    2   p       0.163566      1.000000
    2   p       0.090848      1.000000

    2   d      36.660417      0.038285
    2   d      20.124038      0.999267

    2   d      11.073863      1.000000
    2   d       6.106976      1.000000
    2   d       3.374211      1.000000
    2   d       1.867293      1.000000
    2   d       1.034717      1.000000
    2   d       0.573949      1.000000
    2   d       0.318597      1.000000
    2   d       0.176930      1.000000
    2   d       0.098270      1.000000

    2   f      23.924299      0.000522
    2   f      12.079185      1.000000

    2   f       6.098816      1.000000
    2   f       3.079365      1.000000
    2   f       1.524193      1.000000
    2   f       0.769601      1.000000
    2   f       0.396403      1.000000
    2   f       0.200155      1.000000

    2   g      13.390089      0.036145
    2   g       6.828545      0.999347

    2   g       3.447896      1.000000
    2   g       1.591489      1.000000
    2   g       0.700448      1.000000
    2   g       0.239527      1.000000

    2   h       6.009272      1.000000
    2   h       2.163197      1.000000
    2   h       0.778700      1.000000
 =======================================

 Library entry I      S def2-QZVPP-JKFIT     selected for RI group  1
 Library entry I      P def2-QZVPP-JKFIT     selected for RI group  1
 Library entry I      D def2-QZVPP-JKFIT     selected for RI group  1
 Library entry I      F def2-QZVPP-JKFIT     selected for RI group  1
 Library entry I      G def2-QZVPP-JKFIT     selected for RI group  1
 Library entry I      H def2-QZVPP-JKFIT     selected for RI group  1
 Basis set:    RI
 Basis size:   436
 Sphericals:   T
 =======================================
 Centre l       exponent    contractions
 =======================================

    1   s      78.663624      0.022672
    1   s      48.541031     -0.181523
    1   s      29.953789      0.983125

    1   s      18.484236      1.000000
    1   s      11.406634      1.000000
    1   s       7.039130      1.000000
    1   s       4.343955      1.000000
    1   s       2.680746      1.000000
    1   s       1.654357      1.000000
    1   s       1.020952      1.000000
    1   s       0.630062      1.000000
    1   s       0.388833      1.000000
    1   s       0.239962      1.000000

    1   p      58.564944      0.000048
    1   p      32.524986      0.091692
    1   p      18.063613     -0.995787

    1   p      10.032273      1.000000
    1   p       5.571864      1.000000
    1   p       3.094619      1.000000
    1   p       1.718773      1.000000
    1   p       0.954627      1.000000
    1   p       0.530215      1.000000
    1   p       0.294491      1.000000
    1   p       0.163566      1.000000
    1   p       0.090848      1.000000

    1   d      36.660417      0.038285
    1   d      20.124038      0.999267

    1   d      11.073863      1.000000
    1   d       6.106976      1.000000
    1   d       3.374211      1.000000
    1   d       1.867293      1.000000
    1   d       1.034717      1.000000
    1   d       0.573949      1.000000
    1   d       0.318597      1.000000
    1   d       0.176930      1.000000
    1   d       0.098270      1.000000

    1   f      23.924299      0.000522
    1   f      12.079185      1.000000

    1   f       6.098816      1.000000
    1   f       3.079365      1.000000
    1   f       1.524193      1.000000
    1   f       0.769601      1.000000
    1   f       0.396403      1.000000
    1   f       0.200155      1.000000

    1   g      13.390089      0.036145
    1   g       6.828545      0.999347

    1   g       3.447896      1.000000
    1   g       1.591489      1.000000
    1   g       0.700448      1.000000
    1   g       0.239527      1.000000

    1   h       6.009272      1.000000
    1   h       2.163197      1.000000
    1   h       0.778700      1.000000

    2   s      78.663624      0.022672
    2   s      48.541031     -0.181523
    2   s      29.953789      0.983125

    2   s      18.484236      1.000000
    2   s      11.406634      1.000000
    2   s       7.039130      1.000000
    2   s       4.343955      1.000000
    2   s       2.680746      1.000000
    2   s       1.654357      1.000000
    2   s       1.020952      1.000000
    2   s       0.630062      1.000000
    2   s       0.388833      1.000000
    2   s       0.239962      1.000000

    2   p      58.564944      0.000048
    2   p      32.524986      0.091692
    2   p      18.063613     -0.995787

    2   p      10.032273      1.000000
    2   p       5.571864      1.000000
    2   p       3.094619      1.000000
    2   p       1.718773      1.000000
    2   p       0.954627      1.000000
    2   p       0.530215      1.000000
    2   p       0.294491      1.000000
    2   p       0.163566      1.000000
    2   p       0.090848      1.000000

    2   d      36.660417      0.038285
    2   d      20.124038      0.999267

    2   d      11.073863      1.000000
    2   d       6.106976      1.000000
    2   d       3.374211      1.000000
    2   d       1.867293      1.000000
    2   d       1.034717      1.000000
    2   d       0.573949      1.000000
    2   d       0.318597      1.000000
    2   d       0.176930      1.000000
    2   d       0.098270      1.000000

    2   f      23.924299      0.000522
    2   f      12.079185      1.000000

    2   f       6.098816      1.000000
    2   f       3.079365      1.000000
    2   f       1.524193      1.000000
    2   f       0.769601      1.000000
    2   f       0.396403      1.000000
    2   f       0.200155      1.000000

    2   g      13.390089      0.036145
    2   g       6.828545      0.999347

    2   g       3.447896      1.000000
    2   g       1.591489      1.000000
    2   g       0.700448      1.000000
    2   g       0.239527      1.000000

    2   h       6.009272      1.000000
    2   h       2.163197      1.000000
    2   h       0.778700      1.000000
 =======================================


 PROGRAM * MP2 (Closed-shell)     Authors: C. Hampel, H.-J. Werner, 1991, M. Deegan, P.J. Knowles, 1992

                                   MP2-F12 implementation by H.-J. Werner, 2007

                   Density fitting integral evaluation by F.R. Manby, 2003,2007, G. Knizia, 2010



 Convergence thresholds:  THRVAR = 1.00D-08  THRDEN = 1.00D-09

 Number of core orbitals:          18 (  18 )
 Number of closed-shell orbitals:   7 (   7 )
 Number of external orbitals:     123 ( 123 )

 Molecular orbitals read from record     2100.2  Type=RHF/CANONICAL  

 MP2-F12 correlation treatment (H.-J. Werner, 2006)
 ==================================================

 Some Fock operators are calculated for F12-singles only.

 AO(A)-basis ORBITAL           loaded. Number of functions:     148
 RI(R)-basis RI                loaded. Number of functions:     436
 Basis set JK loaded. Number of basis functions: 436 
 DF-basis JK                   loaded. Number of functions:     436

 Screening thresholds:   THRAO=  1.00D-10  THRMO=  1.00D-09  THRPROD=  1.00D-09
                         THRSW=  1.00D-05  THROV=  1.00D-12  THRAOF12= 1.00D-08

 CPU time for Fock operators                      0.80 sec

 Construction of ABS:
 Smallest eigenvalue of S          1.30E-06  (threshold= 1.00E-09)
 Ratio eigmin/eigmax               1.83E-07  (threshold= 1.00E-09)
 Smallest eigenvalue of S kept     1.30E-06  (threshold= 1.30E-06, 0 functions deleted, 436 kept)

 Construction of CABS:
 Smallest eigenvalue of S          4.32E-12  (threshold= 1.00E-09)
 Ratio eigmin/eigmax               4.32E-12  (threshold= 1.00E-09)
 Smallest eigenvalue of S kept     1.57E-08  (threshold= 1.57E-08, 2 functions deleted, 434 kept)

 CPU time for CABS singles                        0.05 sec

 CABS-singles contribution of  -0.00102273 patched into reference energy.
 New reference energy        -589.34805355

 Leaving lmp2-f12 by request (CABS_SINGLES < 0) after calculation of singles.


  Reference energy                   -589.347030822752
  F12 singles correction               -0.001022727951

 F12 singles corrections added to reference energy

  New reference energy               -589.348053550704

  F12 singlet correction                0.000000000000
  F12 triplet correction                0.000000000000
  F12 total correction                  0.000000000000
  MP2-F12 singlet pair energy           0.000000000000
  MP2-F12 triplet pair energy           0.000000000000
  MP2-F12 correlation energy            0.000000000000

 !MP2-F12 total energy               -589.348053550704


 **********************************************************************************************************************************
 DATASETS  * FILE   NREC   LENGTH (MB)   RECORD NAMES
              1      19       29.74       500      610      700      900      950      970     1000      129      960     1100   
                                          VAR    BASINP    GEOM    SYMINP    ZMAT    AOBASIS   BASIS     P2S    ABASIS      S 
                                         1400     1410     1420     1200     1210     1080     1700     1600     1650   
                                           T        V       ECP      H0       H01     AOSYM    OPER      SMH    MOLCAS    

              2       5        0.99       700     1000      520     2100     7360   
                                         GEOM     BASIS   MCVARS     RHF    F12ABS    

 PROGRAMS   *        TOTAL   DF-CABS     DF-HF       INT
 CPU TIMES  *         2.52      0.97      0.97      0.36
 REAL TIME  *         6.50 SEC
 DISK USED  *        32.05 MB (local),      512.79 MB (total)
 SF USED    *       180.45 MB
 GA USED    *         3.05 MB       (max)       0.00 MB       (current)
 **********************************************************************************************************************************

 DF-CABS/cc-pVTZ-PP-F12 energy=   -589.348053550704

         DF-CABS           DF-HF
   -589.34805355   -589.34703082
 **********************************************************************************************************************************
 Molpro calculation terminated
