
 Working directory              : /scratch/emmanous/3821782.pbs01/molpro.qwzwtO2U8i/
 Global scratch directory       : /scratch/emmanous/3821782.pbs01/molpro.qwzwtO2U8i/
 Wavefunction directory         : /home/emmanous/wfu/
 Main file repository           : /scratch/emmanous/3821782.pbs01/molpro.qwzwtO2U8i/

 id        : wis

 Nodes     nprocs
 cff054      16
 GA implementation: MPI file
 GA implementation (serial work in mppx): MPI file

 Using DEFAULT tuning parameter for ncache   :   16384
 Using DEFAULT tuning parameter for mflopdgm :   10000
 Using DEFAULT tuning parameter for mflopdgv :    4000
 Using DEFAULT tuning parameter for mflopmxm :    5000
 Using DEFAULT tuning parameter for mflopmxv :    4000
 Using DEFAULT tuning parameter for mindgm   :       1
 Using DEFAULT tuning parameter for mindgc   :       4
 Using DEFAULT tuning parameter for mindgf   :    5000
 Using DEFAULT tuning parameter for mindgl   :       4
 Using DEFAULT tuning parameter for mindgr   :       1
 Using DEFAULT tuning parameter for mindgv   :      20
 Using DEFAULT tuning parameter for mincuda  :     500
 Using DEFAULT tuning parameter for mxmblk   :      64
 Using DEFAULT tuning parameter for mxmbln   :      64
 Using DEFAULT tuning parameter for nroll    :       2
 Using custom tuning parameter for ngpus     :       0
 Using customized tuning parameters: mindgm=1; mindgv=20; mindgc=4; mindgr=1; noblas=0; minvec=7

 Fortran compiler: integer size=8, double size=8, logical size=8
 default implementation of scratch files=sf  


 Variables initialized (1025), CPU time= 0.01 sec
 gprint,basis
 gthresh,energy=1d-9
 ANGSTROM
 geomtyp=xyz
 charge=0
 multiplicity=1
 nosym
 geom={
 Cl ,0.0000 ,0.0000 ,0.0000
 Cl ,0.0000 ,0.0000 ,1.9879
 }
 
 basis={
 default,cc-pVQZ-F12
 set,df
 default,cc-pVQZ-F12/MP2Fit
 set,jk
 default,cc-pVQZ-F12/JKFIT
 set,ri
 default,def2-QZVPP/JKFIT
 }
 {df-hf,df_basis=jk
 wf,,,$multiplicity-1
 print,orbitals
 maxit,300}
 {df-cabs,gem_beta=0.9,df_basis=df,df_basis_exch=jk,ri_basis=ri,thrcabs=1d-9,thrcabs_rel=1d-9;explicit,ignore_bad_singl=1}
 Commands initialized (840), CPU time= 0.01 sec, 684 directives.
 Default parameters read. Elapsed time= 0.50 sec

 Using DEFAULT tuning parameter for mpplat   :       3
 Using DEFAULT tuning parameter for mppspeed :    1600
 Checking input...
 Passed
1


                                         ***  PROGRAM SYSTEM MOLPRO  ***
                                       Copyright, TTI GmbH Stuttgart, 2015
                                    Version 2022.3 linked Wed Nov 30 13:40:34 2022


 **********************************************************************************************************************************
 LABEL *                                                                                 
  64 bit mpp version                                                                     DATE: 13-Jul-23          TIME: 11:18:20  
 **********************************************************************************************************************************

 SHA1:             e31ec9a5ea85254ab76f59d122cbdd51c71cf98b
 **********************************************************************************************************************************

 Memory per process:      1000 MW
 Total memory per node:  16000 MW

 GA preallocation disabled
 GA check disabled

 Variable memory set to 1000.0 MW



 THRESHOLDS:

 ZERO    =  1.00D-12  ONEINT  =  1.00D-12  TWOINT  =  1.00D-11  PREFAC  =  1.00D-14  XXXXXX  =  1.00D-09  EORDER  =  1.00D-04
 ENERGY  =  1.00D-09  ETEST   =  0.00D+00  EDENS   =  0.00D+00  THRDEDEF=  1.00D-06  GRADIENT=  1.00D-05  STEP    =  1.00D-03
 ORBITAL =  1.00D-05  CIVEC   =  1.00D-05  COEFF   =  1.00D-04  PRINTCI =  5.00D-02  PUNCHCI =  9.90D+01  OPTGRAD =  3.00D-04
 OPTENERG=  1.00D-06  OPTSTEP =  3.00D-04  THRGRAD =  1.00D-10  COMPRESS=  1.00D-11  VARMIN  =  1.00D-07  VARMAX  =  1.00D-03
 THRDOUB =  0.00D+00  THRDIV  =  1.00D-05  THRRED  =  1.00D-07  THRPSP  =  1.00D+00  THRDC   =  1.00D-10  THRCS   =  1.00D-10
 THRNRM  =  1.00D-08  THREQ   =  0.00D+00  THRDE   =  1.00D+00  THRREF  =  1.00D-05  SPARFAC =  1.00D+00  THRDLP  =  1.00D-07
 THRDIA  =  1.00D-10  THRDLS  =  1.00D-07  THRGPS  =  0.00D+00  THRKEX  =  0.00D+00  THRDIS  =  2.00D-01  THRVAR  =  1.00D-10
 THRLOC  =  1.00D-06  THRGAP  =  1.00D-06  THRLOCT = -1.00D+00  THRGAPT = -1.00D+00  THRORB  =  1.00D-06  THRMLTP =  0.00D+00
 THRCPQCI=  1.00D-10  KEXTA   =  0.00D+00  THRCOARS=  0.00D+00  SYMTOL  =  1.00D-06  GRADTOL =  1.00D-06  THROVL  =  1.00D-08
 THRORTH =  1.00D-08  THRDLOVL= -1.00D+00  GRID    =  1.00D-06  GRIDMAX =  1.00D-03  DTMAX   =  0.00D+00  THROCCDE=  1.00D-01
 THROCCDE=  1.00D-01  THRPRINT=  2.50D-01

 SETTING GEOMTYP        =    XYZ
 SETTING CHARGE         =      0.0000000D+00                                  
 SETTING MULTIPLICITY   =         1.00000000                                  
 ZSYMEL=NOSYM
 ZUNIT=ANG

 SETTING BASIS          =    CC-PVQZ-F12


 Recomputing integrals since basis changed


 Using spherical harmonics

 Library entry CL     S cc-pVQZ-F12          selected for orbital group  1
 Library entry CL     P cc-pVQZ-F12          selected for orbital group  1
 Library entry CL     D cc-pVQZ-F12          selected for orbital group  1
 Library entry CL     F cc-pVQZ-F12          selected for orbital group  1
 Library entry CL     G cc-pVQZ-F12          selected for orbital group  1


 PROGRAM * SEWARD (Integral evaluation for generally contracted gaussian basis sets)     Author: Roland Lindh, 1990

 Geometry written to block  1 of record 700


 Point group  C1  



 ATOMIC COORDINATES

 NR  ATOM    CHARGE       X              Y              Z

   1  CL     17.00    0.000000000    0.000000000    0.000000000
   2  CL     17.00    0.000000000    0.000000000    3.756586563

 Bond lengths in Bohr (Angstrom)

 1-2  3.756586563
     ( 1.987900000)


 BASIS DATA

   Nr Sym  Nuc  Type         Exponents   Contraction coefficients

    1.1 A     1  1s     6410000.000000     0.000002   -0.000001    0.000000    0.000000    0.000000    0.000000
                                           0.000000
    2.1 A                959600.000000     0.000014   -0.000004    0.000001    0.000000    0.000000    0.000000
                                           0.000000
    3.1 A                218300.000000     0.000074   -0.000021    0.000006    0.000000    0.000000    0.000000
                                           0.000000
    4.1 A                 61810.000000     0.000314   -0.000088    0.000027    0.000000    0.000000    0.000000
                                           0.000000
    5.1 A                 20140.000000     0.001146   -0.000322    0.000097    0.000000    0.000000    0.000000
                                           0.000000
    6.1 A                  7264.000000     0.003739   -0.001053    0.000318    0.000000    0.000000    0.000000
                                           0.000000
    7.1 A                  2832.000000     0.011095   -0.003142    0.000952    0.000000    0.000000    0.000000
                                           0.000000
                           1175.000000     0.030115   -0.008664    0.002624    0.000000    0.000000    0.000000
                                           0.000000
                            512.600000     0.073914   -0.021935    0.006682    0.000000    0.000000    0.000000
                                           0.000000
                            233.000000     0.158258   -0.050258    0.015359    0.000000    0.000000    0.000000
                                           0.000000
                            109.500000     0.274753   -0.099541    0.030943    0.000000    0.000000    0.000000
                                           0.000000
                             52.860000     0.334066   -0.157647    0.050064    0.000000    0.000000    0.000000
                                           0.000000
                             25.840000     0.217589   -0.146024    0.048978    0.000000    0.000000    0.000000
                                           0.000000
                             12.170000     0.045728    0.069223   -0.026081    0.000000    0.000000    0.000000
                                           0.000000
                              6.030000    -0.000135    0.430412   -0.178426    0.000000    0.000000    0.000000
                                           0.000000
                              3.012000     0.001639    0.490802   -0.332324    0.000000    0.000000    0.000000
                                           0.000000
                              1.511000    -0.000522    0.158390   -0.132008    1.000000    0.000000    0.000000
                                           0.000000
                              0.660400     0.000181    0.008399    0.440556    0.000000    1.000000    0.000000
                                           0.000000
                              0.292600    -0.000100    0.000768    0.611891    0.000000    0.000000    1.000000
                                           0.000000
                              0.125400     0.000019    0.000227    0.193172    0.000000    0.000000    0.000000
                                           1.000000
    8.1 A     1  1s           0.047900     1.000000
    9.1 A     1  2px       2548.000000     0.000236
                            603.700000     0.002052
                            195.600000     0.011154
                             74.150000     0.043982
                             30.940000     0.129994
                             13.690000     0.272959
                              6.229000     0.383690
                              2.878000     0.291870
                              1.282000     0.070446
                              0.564100     0.001288
                              0.234800     0.001826
                              0.093120     0.000020
   10.1 A     1  2py       2548.000000     0.000236
                            603.700000     0.002052
                            195.600000     0.011154
                             74.150000     0.043982
                             30.940000     0.129994
                             13.690000     0.272959
                              6.229000     0.383690
                              2.878000     0.291870
                              1.282000     0.070446
                              0.564100     0.001288
                              0.234800     0.001826
                              0.093120     0.000020
   11.1 A     1  2pz       2548.000000     0.000236
                            603.700000     0.002052
                            195.600000     0.011154
                             74.150000     0.043982
                             30.940000     0.129994
                             13.690000     0.272959
                              6.229000     0.383690
                              2.878000     0.291870
                              1.282000     0.070446
                              0.564100     0.001288
                              0.234800     0.001826
                              0.093120     0.000020
   12.1 A     1  2px       2548.000000    -0.000064
                            603.700000    -0.000553
                            195.600000    -0.003028
                             74.150000    -0.012065
                             30.940000    -0.036635
                             13.690000    -0.079076
                              6.229000    -0.117422
                              2.878000    -0.086094
                              1.282000     0.140308
                              0.564100     0.422336
                              0.234800     0.446363
                              0.093120     0.166634
   13.1 A     1  2py       2548.000000    -0.000064
                            603.700000    -0.000553
                            195.600000    -0.003028
                             74.150000    -0.012065
                             30.940000    -0.036635
                             13.690000    -0.079076
                              6.229000    -0.117422
                              2.878000    -0.086094
                              1.282000     0.140308
                              0.564100     0.422336
                              0.234800     0.446363
                              0.093120     0.166634
   14.1 A     1  2pz       2548.000000    -0.000064
                            603.700000    -0.000553
                            195.600000    -0.003028
                             74.150000    -0.012065
                             30.940000    -0.036635
                             13.690000    -0.079076
                              6.229000    -0.117422
                              2.878000    -0.086094
                              1.282000     0.140308
                              0.564100     0.422336
                              0.234800     0.446363
                              0.093120     0.166634
   15.1 A     1  2px       2548.000000     0.000000
                            603.700000     0.000000
                            195.600000     0.000000
                             74.150000     0.000000
                             30.940000     0.000000
                             13.690000     0.000000
                              6.229000     0.000000
                              2.878000     1.000000
                              1.282000     0.000000
                              0.564100     0.000000
                              0.234800     0.000000
                              0.093120     0.000000
   16.1 A     1  2py       2548.000000     0.000000
                            603.700000     0.000000
                            195.600000     0.000000
                             74.150000     0.000000
                             30.940000     0.000000
                             13.690000     0.000000
                              6.229000     0.000000
                              2.878000     1.000000
                              1.282000     0.000000
                              0.564100     0.000000
                              0.234800     0.000000
                              0.093120     0.000000
   17.1 A     1  2pz       2548.000000     0.000000
                            603.700000     0.000000
                            195.600000     0.000000
                             74.150000     0.000000
                             30.940000     0.000000
                             13.690000     0.000000
                              6.229000     0.000000
                              2.878000     1.000000
                              1.282000     0.000000
                              0.564100     0.000000
                              0.234800     0.000000
                              0.093120     0.000000
   18.1 A     1  2px       2548.000000     0.000000
                            603.700000     0.000000
                            195.600000     0.000000
                             74.150000     0.000000
                             30.940000     0.000000
                             13.690000     0.000000
                              6.229000     0.000000
                              2.878000     0.000000
                              1.282000     1.000000
                              0.564100     0.000000
                              0.234800     0.000000
                              0.093120     0.000000
   19.1 A     1  2py       2548.000000     0.000000
                            603.700000     0.000000
                            195.600000     0.000000
                             74.150000     0.000000
                             30.940000     0.000000
                             13.690000     0.000000
                              6.229000     0.000000
                              2.878000     0.000000
                              1.282000     1.000000
                              0.564100     0.000000
                              0.234800     0.000000
                              0.093120     0.000000
   20.1 A     1  2pz       2548.000000     0.000000
                            603.700000     0.000000
                            195.600000     0.000000
                             74.150000     0.000000
                             30.940000     0.000000
                             13.690000     0.000000
                              6.229000     0.000000
                              2.878000     0.000000
                              1.282000     1.000000
                              0.564100     0.000000
                              0.234800     0.000000
                              0.093120     0.000000
   21.1 A     1  2px       2548.000000     0.000000
                            603.700000     0.000000
                            195.600000     0.000000
                             74.150000     0.000000
                             30.940000     0.000000
                             13.690000     0.000000
                              6.229000     0.000000
                              2.878000     0.000000
                              1.282000     0.000000
                              0.564100     1.000000
                              0.234800     0.000000
                              0.093120     0.000000
   22.1 A     1  2py       2548.000000     0.000000
                            603.700000     0.000000
                            195.600000     0.000000
                             74.150000     0.000000
                             30.940000     0.000000
                             13.690000     0.000000
                              6.229000     0.000000
                              2.878000     0.000000
                              1.282000     0.000000
                              0.564100     1.000000
                              0.234800     0.000000
                              0.093120     0.000000
   23.1 A     1  2pz       2548.000000     0.000000
                            603.700000     0.000000
                            195.600000     0.000000
                             74.150000     0.000000
                             30.940000     0.000000
                             13.690000     0.000000
                              6.229000     0.000000
                              2.878000     0.000000
                              1.282000     0.000000
                              0.564100     1.000000
                              0.234800     0.000000
                              0.093120     0.000000
   24.1 A     1  2px       2548.000000     0.000000
                            603.700000     0.000000
                            195.600000     0.000000
                             74.150000     0.000000
                             30.940000     0.000000
                             13.690000     0.000000
                              6.229000     0.000000
                              2.878000     0.000000
                              1.282000     0.000000
                              0.564100     0.000000
                              0.234800     1.000000
                              0.093120     0.000000
   25.1 A     1  2py       2548.000000     0.000000
                            603.700000     0.000000
                            195.600000     0.000000
                             74.150000     0.000000
                             30.940000     0.000000
                             13.690000     0.000000
                              6.229000     0.000000
                              2.878000     0.000000
                              1.282000     0.000000
                              0.564100     0.000000
                              0.234800     1.000000
                              0.093120     0.000000
   26.1 A     1  2pz       2548.000000     0.000000
                            603.700000     0.000000
                            195.600000     0.000000
                             74.150000     0.000000
                             30.940000     0.000000
                             13.690000     0.000000
                              6.229000     0.000000
                              2.878000     0.000000
                              1.282000     0.000000
                              0.564100     0.000000
                              0.234800     1.000000
                              0.093120     0.000000
   27.1 A     1  2px       2548.000000     0.000000
                            603.700000     0.000000
                            195.600000     0.000000
                             74.150000     0.000000
                             30.940000     0.000000
                             13.690000     0.000000
                              6.229000     0.000000
                              2.878000     0.000000
                              1.282000     0.000000
                              0.564100     0.000000
                              0.234800     0.000000
                              0.093120     1.000000
   28.1 A     1  2py       2548.000000     0.000000
                            603.700000     0.000000
                            195.600000     0.000000
                             74.150000     0.000000
                             30.940000     0.000000
                             13.690000     0.000000
                              6.229000     0.000000
                              2.878000     0.000000
                              1.282000     0.000000
                              0.564100     0.000000
                              0.234800     0.000000
                              0.093120     1.000000
   29.1 A     1  2pz       2548.000000     0.000000
                            603.700000     0.000000
                            195.600000     0.000000
                             74.150000     0.000000
                             30.940000     0.000000
                             13.690000     0.000000
                              6.229000     0.000000
                              2.878000     0.000000
                              1.282000     0.000000
                              0.564100     0.000000
                              0.234800     0.000000
                              0.093120     1.000000
   30.1 A     1  2px          0.034800     1.000000
   31.1 A     1  2py          0.034800     1.000000
   32.1 A     1  2pz          0.034800     1.000000
   33.1 A     1  3d0         15.385000     1.000000
   34.1 A     1  3d2-        15.385000     1.000000
   35.1 A     1  3d1+        15.385000     1.000000
   36.1 A     1  3d2+        15.385000     1.000000
   37.1 A     1  3d1-        15.385000     1.000000
   38.1 A     1  3d0          4.291700     1.000000
   39.1 A     1  3d2-         4.291700     1.000000
   40.1 A     1  3d1+         4.291700     1.000000
   41.1 A     1  3d2+         4.291700     1.000000
   42.1 A     1  3d1-         4.291700     1.000000
   43.1 A     1  3d0          1.599000     1.000000
   44.1 A     1  3d2-         1.599000     1.000000
   45.1 A     1  3d1+         1.599000     1.000000
   46.1 A     1  3d2+         1.599000     1.000000
   47.1 A     1  3d1-         1.599000     1.000000
   48.1 A     1  3d0          0.595700     1.000000
   49.1 A     1  3d2-         0.595700     1.000000
   50.1 A     1  3d1+         0.595700     1.000000
   51.1 A     1  3d2+         0.595700     1.000000
   52.1 A     1  3d1-         0.595700     1.000000
   53.1 A     1  3d0          0.222000     1.000000
   54.1 A     1  3d2-         0.222000     1.000000
   55.1 A     1  3d1+         0.222000     1.000000
   56.1 A     1  3d2+         0.222000     1.000000
   57.1 A     1  3d1-         0.222000     1.000000
   58.1 A     1  4f1+         4.621200     1.000000
   59.1 A     1  4f1-         4.621200     1.000000
   60.1 A     1  4f0          4.621200     1.000000
   61.1 A     1  4f3+         4.621200     1.000000
   62.1 A     1  4f2-         4.621200     1.000000
   63.1 A     1  4f3-         4.621200     1.000000
   64.1 A     1  4f2+         4.621200     1.000000
   65.1 A     1  4f1+         0.824200     1.000000
   66.1 A     1  4f1-         0.824200     1.000000
   67.1 A     1  4f0          0.824200     1.000000
   68.1 A     1  4f3+         0.824200     1.000000
   69.1 A     1  4f2-         0.824200     1.000000
   70.1 A     1  4f3-         0.824200     1.000000
   71.1 A     1  4f2+         0.824200     1.000000
   72.1 A     1  4f1+         0.317800     1.000000
   73.1 A     1  4f1-         0.317800     1.000000
   74.1 A     1  4f0          0.317800     1.000000
   75.1 A     1  4f3+         0.317800     1.000000
   76.1 A     1  4f2-         0.317800     1.000000
   77.1 A     1  4f3-         0.317800     1.000000
   78.1 A     1  4f2+         0.317800     1.000000
   79.1 A     1  5g0          0.886400     1.000000
   80.1 A     1  5g2-         0.886400     1.000000
   81.1 A     1  5g1+         0.886400     1.000000
   82.1 A     1  5g4+         0.886400     1.000000
   83.1 A     1  5g1-         0.886400     1.000000
   84.1 A     1  5g2+         0.886400     1.000000
   85.1 A     1  5g4-         0.886400     1.000000
   86.1 A     1  5g3+         0.886400     1.000000
   87.1 A     1  5g3-         0.886400     1.000000
   88.1 A     1  5g0          0.361800     1.000000
   89.1 A     1  5g2-         0.361800     1.000000
   90.1 A     1  5g1+         0.361800     1.000000
   91.1 A     1  5g4+         0.361800     1.000000
   92.1 A     1  5g1-         0.361800     1.000000
   93.1 A     1  5g2+         0.361800     1.000000
   94.1 A     1  5g4-         0.361800     1.000000
   95.1 A     1  5g3+         0.361800     1.000000
   96.1 A     1  5g3-         0.361800     1.000000
   97.1 A     2  1s     6410000.000000     0.000002   -0.000001    0.000000    0.000000    0.000000    0.000000
                                           0.000000
   98.1 A                959600.000000     0.000014   -0.000004    0.000001    0.000000    0.000000    0.000000
                                           0.000000
   99.1 A                218300.000000     0.000074   -0.000021    0.000006    0.000000    0.000000    0.000000
                                           0.000000
  100.1 A                 61810.000000     0.000314   -0.000088    0.000027    0.000000    0.000000    0.000000
                                           0.000000
  101.1 A                 20140.000000     0.001146   -0.000322    0.000097    0.000000    0.000000    0.000000
                                           0.000000
  102.1 A                  7264.000000     0.003739   -0.001053    0.000318    0.000000    0.000000    0.000000
                                           0.000000
  103.1 A                  2832.000000     0.011095   -0.003142    0.000952    0.000000    0.000000    0.000000
                                           0.000000
                           1175.000000     0.030115   -0.008664    0.002624    0.000000    0.000000    0.000000
                                           0.000000
                            512.600000     0.073914   -0.021935    0.006682    0.000000    0.000000    0.000000
                                           0.000000
                            233.000000     0.158258   -0.050258    0.015359    0.000000    0.000000    0.000000
                                           0.000000
                            109.500000     0.274753   -0.099541    0.030943    0.000000    0.000000    0.000000
                                           0.000000
                             52.860000     0.334066   -0.157647    0.050064    0.000000    0.000000    0.000000
                                           0.000000
                             25.840000     0.217589   -0.146024    0.048978    0.000000    0.000000    0.000000
                                           0.000000
                             12.170000     0.045728    0.069223   -0.026081    0.000000    0.000000    0.000000
                                           0.000000
                              6.030000    -0.000135    0.430412   -0.178426    0.000000    0.000000    0.000000
                                           0.000000
                              3.012000     0.001639    0.490802   -0.332324    0.000000    0.000000    0.000000
                                           0.000000
                              1.511000    -0.000522    0.158390   -0.132008    1.000000    0.000000    0.000000
                                           0.000000
                              0.660400     0.000181    0.008399    0.440556    0.000000    1.000000    0.000000
                                           0.000000
                              0.292600    -0.000100    0.000768    0.611891    0.000000    0.000000    1.000000
                                           0.000000
                              0.125400     0.000019    0.000227    0.193172    0.000000    0.000000    0.000000
                                           1.000000
  104.1 A     2  1s           0.047900     1.000000
  105.1 A     2  2px       2548.000000     0.000236
                            603.700000     0.002052
                            195.600000     0.011154
                             74.150000     0.043982
                             30.940000     0.129994
                             13.690000     0.272959
                              6.229000     0.383690
                              2.878000     0.291870
                              1.282000     0.070446
                              0.564100     0.001288
                              0.234800     0.001826
                              0.093120     0.000020
  106.1 A     2  2py       2548.000000     0.000236
                            603.700000     0.002052
                            195.600000     0.011154
                             74.150000     0.043982
                             30.940000     0.129994
                             13.690000     0.272959
                              6.229000     0.383690
                              2.878000     0.291870
                              1.282000     0.070446
                              0.564100     0.001288
                              0.234800     0.001826
                              0.093120     0.000020
  107.1 A     2  2pz       2548.000000     0.000236
                            603.700000     0.002052
                            195.600000     0.011154
                             74.150000     0.043982
                             30.940000     0.129994
                             13.690000     0.272959
                              6.229000     0.383690
                              2.878000     0.291870
                              1.282000     0.070446
                              0.564100     0.001288
                              0.234800     0.001826
                              0.093120     0.000020
  108.1 A     2  2px       2548.000000    -0.000064
                            603.700000    -0.000553
                            195.600000    -0.003028
                             74.150000    -0.012065
                             30.940000    -0.036635
                             13.690000    -0.079076
                              6.229000    -0.117422
                              2.878000    -0.086094
                              1.282000     0.140308
                              0.564100     0.422336
                              0.234800     0.446363
                              0.093120     0.166634
  109.1 A     2  2py       2548.000000    -0.000064
                            603.700000    -0.000553
                            195.600000    -0.003028
                             74.150000    -0.012065
                             30.940000    -0.036635
                             13.690000    -0.079076
                              6.229000    -0.117422
                              2.878000    -0.086094
                              1.282000     0.140308
                              0.564100     0.422336
                              0.234800     0.446363
                              0.093120     0.166634
  110.1 A     2  2pz       2548.000000    -0.000064
                            603.700000    -0.000553
                            195.600000    -0.003028
                             74.150000    -0.012065
                             30.940000    -0.036635
                             13.690000    -0.079076
                              6.229000    -0.117422
                              2.878000    -0.086094
                              1.282000     0.140308
                              0.564100     0.422336
                              0.234800     0.446363
                              0.093120     0.166634
  111.1 A     2  2px       2548.000000     0.000000
                            603.700000     0.000000
                            195.600000     0.000000
                             74.150000     0.000000
                             30.940000     0.000000
                             13.690000     0.000000
                              6.229000     0.000000
                              2.878000     1.000000
                              1.282000     0.000000
                              0.564100     0.000000
                              0.234800     0.000000
                              0.093120     0.000000
  112.1 A     2  2py       2548.000000     0.000000
                            603.700000     0.000000
                            195.600000     0.000000
                             74.150000     0.000000
                             30.940000     0.000000
                             13.690000     0.000000
                              6.229000     0.000000
                              2.878000     1.000000
                              1.282000     0.000000
                              0.564100     0.000000
                              0.234800     0.000000
                              0.093120     0.000000
  113.1 A     2  2pz       2548.000000     0.000000
                            603.700000     0.000000
                            195.600000     0.000000
                             74.150000     0.000000
                             30.940000     0.000000
                             13.690000     0.000000
                              6.229000     0.000000
                              2.878000     1.000000
                              1.282000     0.000000
                              0.564100     0.000000
                              0.234800     0.000000
                              0.093120     0.000000
  114.1 A     2  2px       2548.000000     0.000000
                            603.700000     0.000000
                            195.600000     0.000000
                             74.150000     0.000000
                             30.940000     0.000000
                             13.690000     0.000000
                              6.229000     0.000000
                              2.878000     0.000000
                              1.282000     1.000000
                              0.564100     0.000000
                              0.234800     0.000000
                              0.093120     0.000000
  115.1 A     2  2py       2548.000000     0.000000
                            603.700000     0.000000
                            195.600000     0.000000
                             74.150000     0.000000
                             30.940000     0.000000
                             13.690000     0.000000
                              6.229000     0.000000
                              2.878000     0.000000
                              1.282000     1.000000
                              0.564100     0.000000
                              0.234800     0.000000
                              0.093120     0.000000
  116.1 A     2  2pz       2548.000000     0.000000
                            603.700000     0.000000
                            195.600000     0.000000
                             74.150000     0.000000
                             30.940000     0.000000
                             13.690000     0.000000
                              6.229000     0.000000
                              2.878000     0.000000
                              1.282000     1.000000
                              0.564100     0.000000
                              0.234800     0.000000
                              0.093120     0.000000
  117.1 A     2  2px       2548.000000     0.000000
                            603.700000     0.000000
                            195.600000     0.000000
                             74.150000     0.000000
                             30.940000     0.000000
                             13.690000     0.000000
                              6.229000     0.000000
                              2.878000     0.000000
                              1.282000     0.000000
                              0.564100     1.000000
                              0.234800     0.000000
                              0.093120     0.000000
  118.1 A     2  2py       2548.000000     0.000000
                            603.700000     0.000000
                            195.600000     0.000000
                             74.150000     0.000000
                             30.940000     0.000000
                             13.690000     0.000000
                              6.229000     0.000000
                              2.878000     0.000000
                              1.282000     0.000000
                              0.564100     1.000000
                              0.234800     0.000000
                              0.093120     0.000000
  119.1 A     2  2pz       2548.000000     0.000000
                            603.700000     0.000000
                            195.600000     0.000000
                             74.150000     0.000000
                             30.940000     0.000000
                             13.690000     0.000000
                              6.229000     0.000000
                              2.878000     0.000000
                              1.282000     0.000000
                              0.564100     1.000000
                              0.234800     0.000000
                              0.093120     0.000000
  120.1 A     2  2px       2548.000000     0.000000
                            603.700000     0.000000
                            195.600000     0.000000
                             74.150000     0.000000
                             30.940000     0.000000
                             13.690000     0.000000
                              6.229000     0.000000
                              2.878000     0.000000
                              1.282000     0.000000
                              0.564100     0.000000
                              0.234800     1.000000
                              0.093120     0.000000
  121.1 A     2  2py       2548.000000     0.000000
                            603.700000     0.000000
                            195.600000     0.000000
                             74.150000     0.000000
                             30.940000     0.000000
                             13.690000     0.000000
                              6.229000     0.000000
                              2.878000     0.000000
                              1.282000     0.000000
                              0.564100     0.000000
                              0.234800     1.000000
                              0.093120     0.000000
  122.1 A     2  2pz       2548.000000     0.000000
                            603.700000     0.000000
                            195.600000     0.000000
                             74.150000     0.000000
                             30.940000     0.000000
                             13.690000     0.000000
                              6.229000     0.000000
                              2.878000     0.000000
                              1.282000     0.000000
                              0.564100     0.000000
                              0.234800     1.000000
                              0.093120     0.000000
  123.1 A     2  2px       2548.000000     0.000000
                            603.700000     0.000000
                            195.600000     0.000000
                             74.150000     0.000000
                             30.940000     0.000000
                             13.690000     0.000000
                              6.229000     0.000000
                              2.878000     0.000000
                              1.282000     0.000000
                              0.564100     0.000000
                              0.234800     0.000000
                              0.093120     1.000000
  124.1 A     2  2py       2548.000000     0.000000
                            603.700000     0.000000
                            195.600000     0.000000
                             74.150000     0.000000
                             30.940000     0.000000
                             13.690000     0.000000
                              6.229000     0.000000
                              2.878000     0.000000
                              1.282000     0.000000
                              0.564100     0.000000
                              0.234800     0.000000
                              0.093120     1.000000
  125.1 A     2  2pz       2548.000000     0.000000
                            603.700000     0.000000
                            195.600000     0.000000
                             74.150000     0.000000
                             30.940000     0.000000
                             13.690000     0.000000
                              6.229000     0.000000
                              2.878000     0.000000
                              1.282000     0.000000
                              0.564100     0.000000
                              0.234800     0.000000
                              0.093120     1.000000
  126.1 A     2  2px          0.034800     1.000000
  127.1 A     2  2py          0.034800     1.000000
  128.1 A     2  2pz          0.034800     1.000000
  129.1 A     2  3d0         15.385000     1.000000
  130.1 A     2  3d2-        15.385000     1.000000
  131.1 A     2  3d1+        15.385000     1.000000
  132.1 A     2  3d2+        15.385000     1.000000
  133.1 A     2  3d1-        15.385000     1.000000
  134.1 A     2  3d0          4.291700     1.000000
  135.1 A     2  3d2-         4.291700     1.000000
  136.1 A     2  3d1+         4.291700     1.000000
  137.1 A     2  3d2+         4.291700     1.000000
  138.1 A     2  3d1-         4.291700     1.000000
  139.1 A     2  3d0          1.599000     1.000000
  140.1 A     2  3d2-         1.599000     1.000000
  141.1 A     2  3d1+         1.599000     1.000000
  142.1 A     2  3d2+         1.599000     1.000000
  143.1 A     2  3d1-         1.599000     1.000000
  144.1 A     2  3d0          0.595700     1.000000
  145.1 A     2  3d2-         0.595700     1.000000
  146.1 A     2  3d1+         0.595700     1.000000
  147.1 A     2  3d2+         0.595700     1.000000
  148.1 A     2  3d1-         0.595700     1.000000
  149.1 A     2  3d0          0.222000     1.000000
  150.1 A     2  3d2-         0.222000     1.000000
  151.1 A     2  3d1+         0.222000     1.000000
  152.1 A     2  3d2+         0.222000     1.000000
  153.1 A     2  3d1-         0.222000     1.000000
  154.1 A     2  4f1+         4.621200     1.000000
  155.1 A     2  4f1-         4.621200     1.000000
  156.1 A     2  4f0          4.621200     1.000000
  157.1 A     2  4f3+         4.621200     1.000000
  158.1 A     2  4f2-         4.621200     1.000000
  159.1 A     2  4f3-         4.621200     1.000000
  160.1 A     2  4f2+         4.621200     1.000000
  161.1 A     2  4f1+         0.824200     1.000000
  162.1 A     2  4f1-         0.824200     1.000000
  163.1 A     2  4f0          0.824200     1.000000
  164.1 A     2  4f3+         0.824200     1.000000
  165.1 A     2  4f2-         0.824200     1.000000
  166.1 A     2  4f3-         0.824200     1.000000
  167.1 A     2  4f2+         0.824200     1.000000
  168.1 A     2  4f1+         0.317800     1.000000
  169.1 A     2  4f1-         0.317800     1.000000
  170.1 A     2  4f0          0.317800     1.000000
  171.1 A     2  4f3+         0.317800     1.000000
  172.1 A     2  4f2-         0.317800     1.000000
  173.1 A     2  4f3-         0.317800     1.000000
  174.1 A     2  4f2+         0.317800     1.000000
  175.1 A     2  5g0          0.886400     1.000000
  176.1 A     2  5g2-         0.886400     1.000000
  177.1 A     2  5g1+         0.886400     1.000000
  178.1 A     2  5g4+         0.886400     1.000000
  179.1 A     2  5g1-         0.886400     1.000000
  180.1 A     2  5g2+         0.886400     1.000000
  181.1 A     2  5g4-         0.886400     1.000000
  182.1 A     2  5g3+         0.886400     1.000000
  183.1 A     2  5g3-         0.886400     1.000000
  184.1 A     2  5g0          0.361800     1.000000
  185.1 A     2  5g2-         0.361800     1.000000
  186.1 A     2  5g1+         0.361800     1.000000
  187.1 A     2  5g4+         0.361800     1.000000
  188.1 A     2  5g1-         0.361800     1.000000
  189.1 A     2  5g2+         0.361800     1.000000
  190.1 A     2  5g4-         0.361800     1.000000
  191.1 A     2  5g3+         0.361800     1.000000
  192.1 A     2  5g3-         0.361800     1.000000

 NUCLEAR CHARGE:                   34
 NUMBER OF PRIMITIVE AOS:         300
 NUMBER OF SYMMETRY AOS:          248
 NUMBER OF CONTRACTIONS:          192   (  192A   )
 NUMBER OF INNER CORE ORBITALS:     2   (    2A   )
 NUMBER OF OUTER CORE ORBITALS:     8   (    8A   )
 NUMBER OF VALENCE ORBITALS:        8   (    8A   )


 NUCLEAR REPULSION ENERGY   76.93154281


 Library entry CL     S aug-cc-pVQZ-MP2F     selected for DF group  1
 Library entry CL     P aug-cc-pVQZ-MP2F     selected for DF group  1
 Library entry CL     D aug-cc-pVQZ-MP2F     selected for DF group  1
 Library entry CL     F aug-cc-pVQZ-MP2F     selected for DF group  1
 Library entry CL     G aug-cc-pVQZ-MP2F     selected for DF group  1
 Library entry CL     H aug-cc-pVQZ-MP2F     selected for DF group  1
 Basis set:    DF
 Basis size:   388
 Sphericals:   T
 =======================================
 Centre l       exponent    contractions
 =======================================

    1   s     440.588582      1.000000
    1   s     138.901221      1.000000
    1   s      44.007195      1.000000
    1   s      13.303183      1.000000
    1   s       7.477261      1.000000
    1   s       4.070138      1.000000
    1   s       1.945363      1.000000
    1   s       1.078716      1.000000
    1   s       0.712196      1.000000
    1   s       0.332427      1.000000
    1   s       0.195330      1.000000
    1   s       0.081858      1.000000

    1   p     205.034022      1.000000
    1   p      94.734597      1.000000
    1   p      15.606218      1.000000
    1   p       6.613286      1.000000
    1   p       3.136918      1.000000
    1   p       1.748212      1.000000
    1   p       1.030402      1.000000
    1   p       0.562813      1.000000
    1   p       0.327894      1.000000
    1   p       0.134056      1.000000

    1   d      62.987708      1.000000
    1   d      19.659560      1.000000
    1   d       8.429288      1.000000
    1   d       4.269817      1.000000
    1   d       1.877261      1.000000
    1   d       1.119533      1.000000
    1   d       0.542695      1.000000
    1   d       0.267835      1.000000
    1   d       0.104626      1.000000

    1   f      15.169301      1.000000
    1   f       5.964324      1.000000
    1   f       2.787450      1.000000
    1   f       1.688779      1.000000
    1   f       0.947761      1.000000
    1   f       0.436539      1.000000
    1   f       0.189004      1.000000

    1   g       4.242417      1.000000
    1   g       1.500928      1.000000
    1   g       0.722554      1.000000
    1   g       0.363710      1.000000

    1   h       1.242255      1.000000
    1   h       0.570633      1.000000

    2   s     440.588582      1.000000
    2   s     138.901221      1.000000
    2   s      44.007195      1.000000
    2   s      13.303183      1.000000
    2   s       7.477261      1.000000
    2   s       4.070138      1.000000
    2   s       1.945363      1.000000
    2   s       1.078716      1.000000
    2   s       0.712196      1.000000
    2   s       0.332427      1.000000
    2   s       0.195330      1.000000
    2   s       0.081858      1.000000

    2   p     205.034022      1.000000
    2   p      94.734597      1.000000
    2   p      15.606218      1.000000
    2   p       6.613286      1.000000
    2   p       3.136918      1.000000
    2   p       1.748212      1.000000
    2   p       1.030402      1.000000
    2   p       0.562813      1.000000
    2   p       0.327894      1.000000
    2   p       0.134056      1.000000

    2   d      62.987708      1.000000
    2   d      19.659560      1.000000
    2   d       8.429288      1.000000
    2   d       4.269817      1.000000
    2   d       1.877261      1.000000
    2   d       1.119533      1.000000
    2   d       0.542695      1.000000
    2   d       0.267835      1.000000
    2   d       0.104626      1.000000

    2   f      15.169301      1.000000
    2   f       5.964324      1.000000
    2   f       2.787450      1.000000
    2   f       1.688779      1.000000
    2   f       0.947761      1.000000
    2   f       0.436539      1.000000
    2   f       0.189004      1.000000

    2   g       4.242417      1.000000
    2   g       1.500928      1.000000
    2   g       0.722554      1.000000
    2   g       0.363710      1.000000

    2   h       1.242255      1.000000
    2   h       0.570633      1.000000
 =======================================

 Library entry CL     S aug-cc-pVQZ-JKFI     selected for JK group  1
 Library entry CL     P aug-cc-pVQZ-JKFI     selected for JK group  1
 Library entry CL     D aug-cc-pVQZ-JKFI     selected for JK group  1
 Library entry CL     F aug-cc-pVQZ-JKFI     selected for JK group  1
 Library entry CL     G aug-cc-pVQZ-JKFI     selected for JK group  1
 Library entry CL     H aug-cc-pVQZ-JKFI     selected for JK group  1
 Basis set:    JK
 Basis size:   368
 Sphericals:   T
 =======================================
 Centre l       exponent    contractions
 =======================================

    1   s    7082.797058      1.000000
    1   s    2109.309508      1.000000
    1   s     768.412819      1.000000
    1   s     284.792554      1.000000
    1   s     116.553317      1.000000
    1   s      46.394821      1.000000
    1   s      21.956303      1.000000
    1   s       9.993027      1.000000
    1   s       4.719946      1.000000
    1   s       2.657340      1.000000
    1   s       1.081348      1.000000
    1   s       0.531547      1.000000
    1   s       0.233670      1.000000
    1   s       0.102723      1.000000

    1   p     973.735285      1.000000
    1   p     278.991093      1.000000
    1   p     105.886445      1.000000
    1   p      45.231847      1.000000
    1   p      20.289166      1.000000
    1   p       9.582938      1.000000
    1   p       4.464168      1.000000
    1   p       2.362561      1.000000
    1   p       1.149196      1.000000
    1   p       0.603102      1.000000
    1   p       0.305909      1.000000
    1   p       0.155165      1.000000

    1   d     204.380301      1.000000
    1   d      63.693893      1.000000
    1   d      25.726669      1.000000
    1   d      11.602467      1.000000
    1   d       5.457454      1.000000
    1   d       2.883840      1.000000
    1   d       1.339402      1.000000
    1   d       0.616492      1.000000
    1   d       0.274701      1.000000
    1   d       0.122404      1.000000

    1   f       4.204066      1.000000
    1   f       1.675550      1.000000
    1   f       0.752550      1.000000
    1   f       0.378550      1.000000
    1   f       0.190419      1.000000

    1   g       1.213550      1.000000
    1   g       0.547550      1.000000
    1   g       0.247053      1.000000

    1   h       0.951550      1.000000
    1   h       0.380620      1.000000

    2   s    7082.797058      1.000000
    2   s    2109.309508      1.000000
    2   s     768.412819      1.000000
    2   s     284.792554      1.000000
    2   s     116.553317      1.000000
    2   s      46.394821      1.000000
    2   s      21.956303      1.000000
    2   s       9.993027      1.000000
    2   s       4.719946      1.000000
    2   s       2.657340      1.000000
    2   s       1.081348      1.000000
    2   s       0.531547      1.000000
    2   s       0.233670      1.000000
    2   s       0.102723      1.000000

    2   p     973.735285      1.000000
    2   p     278.991093      1.000000
    2   p     105.886445      1.000000
    2   p      45.231847      1.000000
    2   p      20.289166      1.000000
    2   p       9.582938      1.000000
    2   p       4.464168      1.000000
    2   p       2.362561      1.000000
    2   p       1.149196      1.000000
    2   p       0.603102      1.000000
    2   p       0.305909      1.000000
    2   p       0.155165      1.000000

    2   d     204.380301      1.000000
    2   d      63.693893      1.000000
    2   d      25.726669      1.000000
    2   d      11.602467      1.000000
    2   d       5.457454      1.000000
    2   d       2.883840      1.000000
    2   d       1.339402      1.000000
    2   d       0.616492      1.000000
    2   d       0.274701      1.000000
    2   d       0.122404      1.000000

    2   f       4.204066      1.000000
    2   f       1.675550      1.000000
    2   f       0.752550      1.000000
    2   f       0.378550      1.000000
    2   f       0.190419      1.000000

    2   g       1.213550      1.000000
    2   g       0.547550      1.000000
    2   g       0.247053      1.000000

    2   h       0.951550      1.000000
    2   h       0.380620      1.000000
 =======================================

 Library entry CL     S def2-QZVPP-JKFIT     selected for RI group  1
 Library entry CL     P def2-QZVPP-JKFIT     selected for RI group  1
 Library entry CL     D def2-QZVPP-JKFIT     selected for RI group  1
 Library entry CL     F def2-QZVPP-JKFIT     selected for RI group  1
 Library entry CL     G def2-QZVPP-JKFIT     selected for RI group  1
 Basis set:    RI
 Basis size:   256
 Sphericals:   T
 =======================================
 Centre l       exponent    contractions
 =======================================

    1   s    4314.492304      0.113952
    1   s    1746.805329      0.139791
    1   s     742.289220      0.435427
    1   s     330.605087      0.646779

    1   s     154.066270      1.000000
    1   s      74.966927      1.000000
    1   s      37.995926      1.000000
    1   s      20.002388      1.000000
    1   s      10.901937      1.000000
    1   s       6.129562      1.000000
    1   s       3.540945      1.000000
    1   s       2.092553      1.000000
    1   s       1.259119      1.000000
    1   s       0.767609      1.000000
    1   s       0.471693      1.000000
    1   s       0.290625      1.000000

    1   p     608.031690      0.159951
    1   p     222.271889      0.487908

    1   p      85.750428      1.000000
    1   p      34.805164      1.000000
    1   p      14.807712      1.000000
    1   p       6.574415      1.000000
    1   p       3.030700      1.000000
    1   p       1.442283      1.000000
    1   p       0.704078      1.000000
    1   p       0.350162      1.000000
    1   p       0.176131      1.000000
    1   p       0.088932      1.000000

    1   d     195.876234      0.204626
    1   d      65.640548      0.978840

    1   d      27.113701      1.000000
    1   d      12.122091      1.000000
    1   d       5.564124      1.000000
    1   d       2.544286      1.000000
    1   d       1.190254      1.000000
    1   d       0.566146      1.000000
    1   d       0.272023      1.000000
    1   d       0.131146      1.000000

    1   f       8.531085      1.000000
    1   f       2.419706      1.000000
    1   f       0.892293      1.000000
    1   f       0.355202      1.000000

    1   g       1.031984      1.000000

    2   s    4314.492304      0.113952
    2   s    1746.805329      0.139791
    2   s     742.289220      0.435427
    2   s     330.605087      0.646779

    2   s     154.066270      1.000000
    2   s      74.966927      1.000000
    2   s      37.995926      1.000000
    2   s      20.002388      1.000000
    2   s      10.901937      1.000000
    2   s       6.129562      1.000000
    2   s       3.540945      1.000000
    2   s       2.092553      1.000000
    2   s       1.259119      1.000000
    2   s       0.767609      1.000000
    2   s       0.471693      1.000000
    2   s       0.290625      1.000000

    2   p     608.031690      0.159951
    2   p     222.271889      0.487908

    2   p      85.750428      1.000000
    2   p      34.805164      1.000000
    2   p      14.807712      1.000000
    2   p       6.574415      1.000000
    2   p       3.030700      1.000000
    2   p       1.442283      1.000000
    2   p       0.704078      1.000000
    2   p       0.350162      1.000000
    2   p       0.176131      1.000000
    2   p       0.088932      1.000000

    2   d     195.876234      0.204626
    2   d      65.640548      0.978840

    2   d      27.113701      1.000000
    2   d      12.122091      1.000000
    2   d       5.564124      1.000000
    2   d       2.544286      1.000000
    2   d       1.190254      1.000000
    2   d       0.566146      1.000000
    2   d       0.272023      1.000000
    2   d       0.131146      1.000000

    2   f       8.531085      1.000000
    2   f       2.419706      1.000000
    2   f       0.892293      1.000000
    2   f       0.355202      1.000000

    2   g       1.031984      1.000000
 =======================================


 **********************************************************************************************************************************

 EXTRA SYMMETRY OF AOS IN SYMMETRY 1:   1 1 1 1 1 1 1 1 2 3   1 2 3 1 2 3 1 2 3 1   2 3 1 2 3 1 2 3 1 2   3 1 1 4 2 5 3 1 4 2
                                        5 3 1 4 2 5 3 1 4 2   5 3 1 4 2 5 3 2 3 1   6 4 7 5 2 3 1 6 4 7   5 2 3 1 6 4 7 5 1 4
                                        2 8 3 5 9 6 7 1 4 2   8 3 5 9 6 7 1 1 1 1   1 1 1 1 2 3 1 2 3 1   2 3 1 2 3 1 2 3 1 2
                                        3 1 2 3 1 2 3 1 1 4   2 5 3 1 4 2 5 3 1 4   2 5 3 1 4 2 5 3 1 4   2 5 3 2 3 1 6 4 7 5
                                        2 3 1 6 4 7 5 2 3 1   6 4 7 5 1 4 2 8 3 5   9 6 7 1 4 2 8 3 5 9   6 7

 Eigenvalues of metric

         1 0.286E-05 0.290E-05 0.296E-05 0.296E-05 0.297E-05 0.297E-05 0.272E-04 0.293E-04


 OPERATOR DM      FOR CENTER  0  COORDINATES:    0.000000    0.000000    0.000000


 **********************************************************************************************************************************
 DATASETS  * FILE   NREC   LENGTH (MB)   RECORD NAMES
              1      18       29.93       500      610      700      900      950      970     1000      129      960     1100   
                                          VAR    BASINP    GEOM    SYMINP    ZMAT    AOBASIS   BASIS     P2S    ABASIS      S 
                                         1400     1410     1200     1210     1080     1600     1650     1700   
                                           T        V       H0       H01     AOSYM     SMH    MOLCAS    OPER   

 PROGRAMS   *        TOTAL       INT
 CPU TIMES  *         0.60      0.41
 REAL TIME  *         2.10 SEC
 DISK USED  *        30.26 MB (local),      484.13 MB (total)
 GA USED    *         0.00 MB       (max)       0.00 MB       (current)
 **********************************************************************************************************************************


 Program * Restricted Hartree-Fock

 Coulomb and exchange fitting
 Thresholds for fitting:       THRAO_COUL= 1.0D-16    THRAO_EXCH= 1.0D-14    THRMO= 1.0D-13    THRPROD= 1.0D-13    THRASM= 1.0D-13
                               THR2HLF=    1.0D-13

 Basis set JK loaded. Number of basis functions: 368

 Orbital guess generated from atomic densities. Full valence occupancy:   18
 Using density fitting in orbital guess


 Initial occupancy:  17

 NELEC=   34   SYM=1   MS2= 0   THRE=1.0D-11   THRD=1.0D-06   THRG=1.0D-06  HFMA2=F  DIIS_START=2   DIIS_MAX=10   DIIS_INCORE=F

 Level shifts:    0.00 (CLOSED)    0.00 (OPEN)    0.30 (GAP_MIN)

 ITER           ETOT              DE          GRAD        DDIFF     DIIS  NEXP   TIME(IT)  TIME(TOT)  DIAG
   1     -918.99118738    -918.99118738     0.00D+00     0.60D-01     0     0       0.03      0.13    start
   2     -919.00695977      -0.01577239     0.27D-02     0.23D-02     1     0       0.03      0.16    diag
   3     -919.01009404      -0.00313427     0.13D-02     0.72D-03     2     0       0.03      0.19    diag
   4     -919.01033826      -0.00024422     0.20D-03     0.18D-03     3     0       0.03      0.22    diag
   5     -919.01035825      -0.00001999     0.52D-04     0.43D-04     4     0       0.04      0.26    diag
   6     -919.01035871      -0.00000046     0.85D-05     0.83D-05     5     0       0.03      0.29    diag
   7     -919.01035871      -0.00000000     0.12D-05     0.16D-05     6     0       0.03      0.32    diag
   8     -919.01035871      -0.00000000     0.25D-06     0.38D-06     7     0       0.03      0.35    fixocc
   9     -919.01035871      -0.00000000     0.47D-07     0.50D-07     8     0       0.03      0.38    diag
  10     -919.01035871       0.00000000     0.53D-08     0.60D-08     0     0       0.03      0.41    diag/orth

 Final occupancy:  17

 !RHF STATE 1.1 Energy               -919.010358711671
  RHF One-electron energy           -1423.078614067626
  RHF Two-electron energy             427.136712546475
  RHF Kinetic energy                  918.982860188297
  RHF Nuclear energy                   76.931542809481
  RHF Virial quotient                  -1.000029922782

 !RHF STATE 1.1 Dipole moment           0.00000000     0.00000000    -0.00000000
 Dipole moment /Debye                   0.00000000     0.00000000    -0.00000000

 ELECTRON ORBITALS
 =================

  Orbital  Occupation    Energy    Cen Mu Typ  Coefficients
    1.1     2.00000  -104.89764     1  1  s    0.70710    2  1  s    0.70710
    2.1     2.00000  -104.89763     1  1  s    0.70710    2  1  s   -0.70710
    3.1     2.00000   -10.61963     1  2  s    0.70694    2  2  s    0.70694
    4.1     2.00000   -10.61946     1  2  s    0.70693    2  2  s   -0.70693
    5.1     2.00000    -8.08647     1  1  pz   0.70445    2  1  pz  -0.70445
    6.1     2.00000    -8.08620     1  1  pz   0.70411    2  1  pz   0.70411
    7.1     2.00000    -8.08415     1  1  py   0.70861    2  1  py   0.70861
    8.1     2.00000    -8.08415     1  1  px   0.70861    2  1  px   0.70861
    9.1     2.00000    -8.08415     1  1  py   0.70858    2  1  py  -0.70858
   10.1     2.00000    -8.08415     1  1  px   0.70858    2  1  px  -0.70858
   11.1     2.00000    -1.21868     1  3  s    0.64011    2  3  s    0.64011
   12.1     2.00000    -1.01464     1  3  s    0.72300    2  3  s   -0.72300
   13.1     2.00000    -0.59807     1  2  pz   0.66915    2  2  pz  -0.66915
   14.1     2.00000    -0.57007     1  2  px   0.68613    2  2  px   0.68613
   15.1     2.00000    -0.57007     1  2  py   0.68613    2  2  py   0.68613
   16.1     2.00000    -0.44371     1  2  px   0.74020    2  2  px  -0.74020
   17.1     2.00000    -0.44371     1  2  py   0.74020    2  2  py  -0.74020


 HOMO     17.1    -0.443711 =     -12.0740eV
 LUMO     18.1     0.023863 =       0.6494eV
 LUMO-HOMO         0.467574 =      12.7233eV

 Orbitals saved in record  2100.2


 **********************************************************************************************************************************
 DATASETS  * FILE   NREC   LENGTH (MB)   RECORD NAMES
              1      18       29.93       500      610      700      900      950      970     1000      129      960     1100   
                                          VAR    BASINP    GEOM    SYMINP    ZMAT    AOBASIS   BASIS     P2S    ABASIS      S 
                                         1400     1410     1200     1210     1080     1600     1650     1700   
                                           T        V       H0       H01     AOSYM     SMH    MOLCAS    OPER   

              2       4        0.96       700     1000      520     2100   
                                         GEOM     BASIS   MCVARS     RHF  

 PROGRAMS   *        TOTAL     DF-HF       INT
 CPU TIMES  *         1.14      0.54      0.41
 REAL TIME  *         2.94 SEC
 DISK USED  *        33.36 MB (local),      533.73 MB (total)
 SF USED    *         9.70 MB
 GA USED    *         0.00 MB       (max)       0.00 MB       (current)
 **********************************************************************************************************************************

 Library entry CL     S aug-cc-pVQZ-MP2F     selected for DF group  1
 Library entry CL     P aug-cc-pVQZ-MP2F     selected for DF group  1
 Library entry CL     D aug-cc-pVQZ-MP2F     selected for DF group  1
 Library entry CL     F aug-cc-pVQZ-MP2F     selected for DF group  1
 Library entry CL     G aug-cc-pVQZ-MP2F     selected for DF group  1
 Library entry CL     H aug-cc-pVQZ-MP2F     selected for DF group  1
 Basis set:    DF
 Basis size:   388
 Sphericals:   T
 =======================================
 Centre l       exponent    contractions
 =======================================

    1   s     440.588582      1.000000
    1   s     138.901221      1.000000
    1   s      44.007195      1.000000
    1   s      13.303183      1.000000
    1   s       7.477261      1.000000
    1   s       4.070138      1.000000
    1   s       1.945363      1.000000
    1   s       1.078716      1.000000
    1   s       0.712196      1.000000
    1   s       0.332427      1.000000
    1   s       0.195330      1.000000
    1   s       0.081858      1.000000

    1   p     205.034022      1.000000
    1   p      94.734597      1.000000
    1   p      15.606218      1.000000
    1   p       6.613286      1.000000
    1   p       3.136918      1.000000
    1   p       1.748212      1.000000
    1   p       1.030402      1.000000
    1   p       0.562813      1.000000
    1   p       0.327894      1.000000
    1   p       0.134056      1.000000

    1   d      62.987708      1.000000
    1   d      19.659560      1.000000
    1   d       8.429288      1.000000
    1   d       4.269817      1.000000
    1   d       1.877261      1.000000
    1   d       1.119533      1.000000
    1   d       0.542695      1.000000
    1   d       0.267835      1.000000
    1   d       0.104626      1.000000

    1   f      15.169301      1.000000
    1   f       5.964324      1.000000
    1   f       2.787450      1.000000
    1   f       1.688779      1.000000
    1   f       0.947761      1.000000
    1   f       0.436539      1.000000
    1   f       0.189004      1.000000

    1   g       4.242417      1.000000
    1   g       1.500928      1.000000
    1   g       0.722554      1.000000
    1   g       0.363710      1.000000

    1   h       1.242255      1.000000
    1   h       0.570633      1.000000

    2   s     440.588582      1.000000
    2   s     138.901221      1.000000
    2   s      44.007195      1.000000
    2   s      13.303183      1.000000
    2   s       7.477261      1.000000
    2   s       4.070138      1.000000
    2   s       1.945363      1.000000
    2   s       1.078716      1.000000
    2   s       0.712196      1.000000
    2   s       0.332427      1.000000
    2   s       0.195330      1.000000
    2   s       0.081858      1.000000

    2   p     205.034022      1.000000
    2   p      94.734597      1.000000
    2   p      15.606218      1.000000
    2   p       6.613286      1.000000
    2   p       3.136918      1.000000
    2   p       1.748212      1.000000
    2   p       1.030402      1.000000
    2   p       0.562813      1.000000
    2   p       0.327894      1.000000
    2   p       0.134056      1.000000

    2   d      62.987708      1.000000
    2   d      19.659560      1.000000
    2   d       8.429288      1.000000
    2   d       4.269817      1.000000
    2   d       1.877261      1.000000
    2   d       1.119533      1.000000
    2   d       0.542695      1.000000
    2   d       0.267835      1.000000
    2   d       0.104626      1.000000

    2   f      15.169301      1.000000
    2   f       5.964324      1.000000
    2   f       2.787450      1.000000
    2   f       1.688779      1.000000
    2   f       0.947761      1.000000
    2   f       0.436539      1.000000
    2   f       0.189004      1.000000

    2   g       4.242417      1.000000
    2   g       1.500928      1.000000
    2   g       0.722554      1.000000
    2   g       0.363710      1.000000

    2   h       1.242255      1.000000
    2   h       0.570633      1.000000
 =======================================

 Library entry CL     S aug-cc-pVQZ-JKFI     selected for JK group  1
 Library entry CL     P aug-cc-pVQZ-JKFI     selected for JK group  1
 Library entry CL     D aug-cc-pVQZ-JKFI     selected for JK group  1
 Library entry CL     F aug-cc-pVQZ-JKFI     selected for JK group  1
 Library entry CL     G aug-cc-pVQZ-JKFI     selected for JK group  1
 Library entry CL     H aug-cc-pVQZ-JKFI     selected for JK group  1
 Basis set:    JK
 Basis size:   368
 Sphericals:   T
 =======================================
 Centre l       exponent    contractions
 =======================================

    1   s    7082.797058      1.000000
    1   s    2109.309508      1.000000
    1   s     768.412819      1.000000
    1   s     284.792554      1.000000
    1   s     116.553317      1.000000
    1   s      46.394821      1.000000
    1   s      21.956303      1.000000
    1   s       9.993027      1.000000
    1   s       4.719946      1.000000
    1   s       2.657340      1.000000
    1   s       1.081348      1.000000
    1   s       0.531547      1.000000
    1   s       0.233670      1.000000
    1   s       0.102723      1.000000

    1   p     973.735285      1.000000
    1   p     278.991093      1.000000
    1   p     105.886445      1.000000
    1   p      45.231847      1.000000
    1   p      20.289166      1.000000
    1   p       9.582938      1.000000
    1   p       4.464168      1.000000
    1   p       2.362561      1.000000
    1   p       1.149196      1.000000
    1   p       0.603102      1.000000
    1   p       0.305909      1.000000
    1   p       0.155165      1.000000

    1   d     204.380301      1.000000
    1   d      63.693893      1.000000
    1   d      25.726669      1.000000
    1   d      11.602467      1.000000
    1   d       5.457454      1.000000
    1   d       2.883840      1.000000
    1   d       1.339402      1.000000
    1   d       0.616492      1.000000
    1   d       0.274701      1.000000
    1   d       0.122404      1.000000

    1   f       4.204066      1.000000
    1   f       1.675550      1.000000
    1   f       0.752550      1.000000
    1   f       0.378550      1.000000
    1   f       0.190419      1.000000

    1   g       1.213550      1.000000
    1   g       0.547550      1.000000
    1   g       0.247053      1.000000

    1   h       0.951550      1.000000
    1   h       0.380620      1.000000

    2   s    7082.797058      1.000000
    2   s    2109.309508      1.000000
    2   s     768.412819      1.000000
    2   s     284.792554      1.000000
    2   s     116.553317      1.000000
    2   s      46.394821      1.000000
    2   s      21.956303      1.000000
    2   s       9.993027      1.000000
    2   s       4.719946      1.000000
    2   s       2.657340      1.000000
    2   s       1.081348      1.000000
    2   s       0.531547      1.000000
    2   s       0.233670      1.000000
    2   s       0.102723      1.000000

    2   p     973.735285      1.000000
    2   p     278.991093      1.000000
    2   p     105.886445      1.000000
    2   p      45.231847      1.000000
    2   p      20.289166      1.000000
    2   p       9.582938      1.000000
    2   p       4.464168      1.000000
    2   p       2.362561      1.000000
    2   p       1.149196      1.000000
    2   p       0.603102      1.000000
    2   p       0.305909      1.000000
    2   p       0.155165      1.000000

    2   d     204.380301      1.000000
    2   d      63.693893      1.000000
    2   d      25.726669      1.000000
    2   d      11.602467      1.000000
    2   d       5.457454      1.000000
    2   d       2.883840      1.000000
    2   d       1.339402      1.000000
    2   d       0.616492      1.000000
    2   d       0.274701      1.000000
    2   d       0.122404      1.000000

    2   f       4.204066      1.000000
    2   f       1.675550      1.000000
    2   f       0.752550      1.000000
    2   f       0.378550      1.000000
    2   f       0.190419      1.000000

    2   g       1.213550      1.000000
    2   g       0.547550      1.000000
    2   g       0.247053      1.000000

    2   h       0.951550      1.000000
    2   h       0.380620      1.000000
 =======================================

 Library entry CL     S def2-QZVPP-JKFIT     selected for RI group  1
 Library entry CL     P def2-QZVPP-JKFIT     selected for RI group  1
 Library entry CL     D def2-QZVPP-JKFIT     selected for RI group  1
 Library entry CL     F def2-QZVPP-JKFIT     selected for RI group  1
 Library entry CL     G def2-QZVPP-JKFIT     selected for RI group  1
 Basis set:    RI
 Basis size:   256
 Sphericals:   T
 =======================================
 Centre l       exponent    contractions
 =======================================

    1   s    4314.492304      0.113952
    1   s    1746.805329      0.139791
    1   s     742.289220      0.435427
    1   s     330.605087      0.646779

    1   s     154.066270      1.000000
    1   s      74.966927      1.000000
    1   s      37.995926      1.000000
    1   s      20.002388      1.000000
    1   s      10.901937      1.000000
    1   s       6.129562      1.000000
    1   s       3.540945      1.000000
    1   s       2.092553      1.000000
    1   s       1.259119      1.000000
    1   s       0.767609      1.000000
    1   s       0.471693      1.000000
    1   s       0.290625      1.000000

    1   p     608.031690      0.159951
    1   p     222.271889      0.487908

    1   p      85.750428      1.000000
    1   p      34.805164      1.000000
    1   p      14.807712      1.000000
    1   p       6.574415      1.000000
    1   p       3.030700      1.000000
    1   p       1.442283      1.000000
    1   p       0.704078      1.000000
    1   p       0.350162      1.000000
    1   p       0.176131      1.000000
    1   p       0.088932      1.000000

    1   d     195.876234      0.204626
    1   d      65.640548      0.978840

    1   d      27.113701      1.000000
    1   d      12.122091      1.000000
    1   d       5.564124      1.000000
    1   d       2.544286      1.000000
    1   d       1.190254      1.000000
    1   d       0.566146      1.000000
    1   d       0.272023      1.000000
    1   d       0.131146      1.000000

    1   f       8.531085      1.000000
    1   f       2.419706      1.000000
    1   f       0.892293      1.000000
    1   f       0.355202      1.000000

    1   g       1.031984      1.000000

    2   s    4314.492304      0.113952
    2   s    1746.805329      0.139791
    2   s     742.289220      0.435427
    2   s     330.605087      0.646779

    2   s     154.066270      1.000000
    2   s      74.966927      1.000000
    2   s      37.995926      1.000000
    2   s      20.002388      1.000000
    2   s      10.901937      1.000000
    2   s       6.129562      1.000000
    2   s       3.540945      1.000000
    2   s       2.092553      1.000000
    2   s       1.259119      1.000000
    2   s       0.767609      1.000000
    2   s       0.471693      1.000000
    2   s       0.290625      1.000000

    2   p     608.031690      0.159951
    2   p     222.271889      0.487908

    2   p      85.750428      1.000000
    2   p      34.805164      1.000000
    2   p      14.807712      1.000000
    2   p       6.574415      1.000000
    2   p       3.030700      1.000000
    2   p       1.442283      1.000000
    2   p       0.704078      1.000000
    2   p       0.350162      1.000000
    2   p       0.176131      1.000000
    2   p       0.088932      1.000000

    2   d     195.876234      0.204626
    2   d      65.640548      0.978840

    2   d      27.113701      1.000000
    2   d      12.122091      1.000000
    2   d       5.564124      1.000000
    2   d       2.544286      1.000000
    2   d       1.190254      1.000000
    2   d       0.566146      1.000000
    2   d       0.272023      1.000000
    2   d       0.131146      1.000000

    2   f       8.531085      1.000000
    2   f       2.419706      1.000000
    2   f       0.892293      1.000000
    2   f       0.355202      1.000000

    2   g       1.031984      1.000000
 =======================================


 PROGRAM * MP2 (Closed-shell)     Authors: C. Hampel, H.-J. Werner, 1991, M. Deegan, P.J. Knowles, 1992

                                   MP2-F12 implementation by H.-J. Werner, 2007

                   Density fitting integral evaluation by F.R. Manby, 2003,2007, G. Knizia, 2010



 Convergence thresholds:  THRVAR = 1.00D-08  THRDEN = 1.00D-09

 Number of core orbitals:          10 (  10 )
 Number of closed-shell orbitals:   7 (   7 )
 Number of external orbitals:     175 ( 175 )

 Molecular orbitals read from record     2100.2  Type=RHF/CANONICAL  

 MP2-F12 correlation treatment (H.-J. Werner, 2006)
 ==================================================

 Some Fock operators are calculated for F12-singles only.

 AO(A)-basis ORBITAL           loaded. Number of functions:     192
 RI(R)-basis RI                loaded. Number of functions:     256
 Basis set JK loaded. Number of basis functions: 368 
 DF-basis JK                   loaded. Number of functions:     368

 Screening thresholds:   THRAO=  1.00D-10  THRMO=  1.00D-09  THRPROD=  1.00D-09
                         THRSW=  1.00D-05  THROV=  1.00D-12  THRAOF12= 1.00D-08

 CPU time for Fock operators                      0.14 sec

 Construction of ABS:
 Smallest eigenvalue of S          5.05E-06  (threshold= 1.00E-09)
 Ratio eigmin/eigmax               7.12E-07  (threshold= 1.00E-09)
 Smallest eigenvalue of S kept     5.05E-06  (threshold= 5.05E-06, 0 functions deleted, 256 kept)

 Construction of CABS:
 Smallest eigenvalue of S          3.83E-11  (threshold= 1.00E-09)
 Ratio eigmin/eigmax               3.83E-11  (threshold= 1.00E-09)
 Smallest eigenvalue of S kept     8.67E-09  (threshold= 8.67E-09, 4 functions deleted, 252 kept)

 CPU time for CABS singles                        0.03 sec

 CABS-singles contribution of  -0.00013097 patched into reference energy.
 New reference energy        -919.01048968

 Leaving lmp2-f12 by request (CABS_SINGLES < 0) after calculation of singles.


  Reference energy                   -919.010358711671
  F12 singles correction               -0.000130967310

 F12 singles corrections added to reference energy

  New reference energy               -919.010489678981

  F12 singlet correction                0.000000000000
  F12 triplet correction                0.000000000000
  F12 total correction                  0.000000000000
  MP2-F12 singlet pair energy           0.000000000000
  MP2-F12 triplet pair energy           0.000000000000
  MP2-F12 correlation energy            0.000000000000

 !MP2-F12 total energy               -919.010489678981


 **********************************************************************************************************************************
 DATASETS  * FILE   NREC   LENGTH (MB)   RECORD NAMES
              1      18       29.93       500      610      700      900      950      970     1000      129      960     1100   
                                          VAR    BASINP    GEOM    SYMINP    ZMAT    AOBASIS   BASIS     P2S    ABASIS      S 
                                         1400     1410     1200     1210     1080     1600     1650     1700   
                                           T        V       H0       H01     AOSYM     SMH    MOLCAS    OPER   

              2       5        1.40       700     1000      520     2100     7360   
                                         GEOM     BASIS   MCVARS     RHF    F12ABS    

 PROGRAMS   *        TOTAL   DF-CABS     DF-HF       INT
 CPU TIMES  *         1.40      0.25      0.54      0.41
 REAL TIME  *         3.30 SEC
 DISK USED  *        33.36 MB (local),      533.73 MB (total)
 SF USED    *       105.68 MB
 GA USED    *         3.05 MB       (max)       0.00 MB       (current)
 **********************************************************************************************************************************

 DF-CABS/cc-pVQZ-F12 energy=   -919.010489678981

         DF-CABS           DF-HF
   -919.01048968   -919.01035871
 **********************************************************************************************************************************
 Molpro calculation terminated
